<?xml version="1.0" encoding="UTF-8"?>

<!-- generated on 2023-03-07 22:54:59 by Eclipse SUMO GUI Version 1.14.1
<configuration xmlns:xsi="http://www.w3.org/2001/XMLSchema-instance" xsi:noNamespaceSchemaLocation="http://sumo.dlr.de/xsd/sumoConfiguration.xsd">

    <input>
        <net-file value="traffic/ring.net.xml"/>
        <additional-files value="traffic/ring.add.xml,traffic/persons.add.xml"/>
    </input>

    <output>
        <tripinfo-output value="tripinfo.xml"/>
    </output>

    <processing>
        <no-internal-links value="false"/>
    </processing>

    <report>
        <no-warnings value="true"/>
    </report>

    <traci_server>
        <remote-port value="50385"/>
    </traci_server>

</configuration>
-->

<tripinfos xmlns:xsi="http://www.w3.org/2001/XMLSchema-instance" xsi:noNamespaceSchemaLocation="http://sumo.dlr.de/xsd/tripinfo_file.xsd">
    <personinfo id="p101" depart="0.00" type="DEFAULT_PEDTYPE">
        <walk depart="0.00" departPos="221.00" arrival="5.00" arrivalPos="226.67" duration="5.00" routeLength="5.67" timeLoss="1.17" maxSpeed="1.48"/>
        <ride waitingTime="19.00" vehicle="bus.1" depart="24.00" arrival="59.00" arrivalPos="231.67" duration="35.00" routeLength="443.34" timeLoss="4.41"/>
        <walk depart="59.00" departPos="231.67" arrival="74.00" arrivalPos="250.00" duration="15.00" routeLength="18.33" timeLoss="1.80" maxSpeed="1.39"/>
    </personinfo>
    <personinfo id="p82" depart="0.00" type="DEFAULT_PEDTYPE">
        <walk depart="0.00" departPos="221.00" arrival="6.00" arrivalPos="226.67" duration="6.00" routeLength="5.67" timeLoss="1.91" maxSpeed="1.39"/>
        <ride waitingTime="28.00" vehicle="bus.2" depart="34.00" arrival="69.00" arrivalPos="231.67" duration="35.00" routeLength="443.33" timeLoss="4.41"/>
        <walk depart="69.00" departPos="231.67" arrival="84.00" arrivalPos="250.00" duration="15.00" routeLength="18.33" timeLoss="1.80" maxSpeed="1.39"/>
    </personinfo>
    <personinfo id="p43" depart="0.00" type="DEFAULT_PEDTYPE">
        <walk depart="0.00" departPos="221.00" arrival="6.00" arrivalPos="226.67" duration="6.00" routeLength="5.67" timeLoss="2.26" maxSpeed="1.52"/>
        <ride waitingTime="28.00" vehicle="bus.4" depart="34.00" arrival="70.00" arrivalPos="231.67" duration="36.00" routeLength="443.34" timeLoss="4.41"/>
        <walk depart="70.00" departPos="231.67" arrival="85.00" arrivalPos="250.00" duration="15.00" routeLength="18.33" timeLoss="1.80" maxSpeed="1.39"/>
    </personinfo>
    <personinfo id="p66" depart="0.00" type="DEFAULT_PEDTYPE">
        <walk depart="0.00" departPos="221.00" arrival="9.00" arrivalPos="226.67" duration="9.00" routeLength="5.67" timeLoss="4.37" maxSpeed="1.23"/>
        <ride waitingTime="25.00" vehicle="bus.3" depart="34.00" arrival="70.00" arrivalPos="231.67" duration="36.00" routeLength="443.33" timeLoss="4.41"/>
        <walk depart="70.00" departPos="231.67" arrival="85.00" arrivalPos="250.00" duration="15.00" routeLength="18.33" timeLoss="1.80" maxSpeed="1.39"/>
    </personinfo>
    <personinfo id="p83" depart="0.00" type="DEFAULT_PEDTYPE">
        <walk depart="0.00" departPos="221.00" arrival="7.00" arrivalPos="226.67" duration="7.00" routeLength="5.67" timeLoss="2.99" maxSpeed="1.41"/>
        <ride waitingTime="27.00" vehicle="bus.2" depart="34.00" arrival="70.00" arrivalPos="231.67" duration="36.00" routeLength="443.33" timeLoss="4.41"/>
        <walk depart="70.00" departPos="231.67" arrival="85.00" arrivalPos="250.00" duration="15.00" routeLength="18.33" timeLoss="1.80" maxSpeed="1.39"/>
    </personinfo>
    <personinfo id="p47" depart="0.00" type="DEFAULT_PEDTYPE">
        <walk depart="0.00" departPos="221.00" arrival="7.00" arrivalPos="226.67" duration="7.00" routeLength="5.67" timeLoss="2.91" maxSpeed="1.39"/>
        <ride waitingTime="27.00" vehicle="bus.4" depart="34.00" arrival="70.00" arrivalPos="231.67" duration="36.00" routeLength="443.34" timeLoss="4.41"/>
        <walk depart="70.00" departPos="231.67" arrival="86.00" arrivalPos="250.00" duration="16.00" routeLength="18.33" timeLoss="2.80" maxSpeed="1.39"/>
    </personinfo>
    <personinfo id="p50" depart="0.00" type="DEFAULT_PEDTYPE">
        <walk depart="0.00" departPos="221.00" arrival="10.00" arrivalPos="226.67" duration="10.00" routeLength="5.67" timeLoss="5.20" maxSpeed="1.18"/>
        <ride waitingTime="24.00" vehicle="bus.4" depart="34.00" arrival="71.00" arrivalPos="231.67" duration="37.00" routeLength="443.34" timeLoss="4.41"/>
        <walk depart="71.00" departPos="231.67" arrival="86.00" arrivalPos="250.00" duration="15.00" routeLength="18.33" timeLoss="1.80" maxSpeed="1.39"/>
    </personinfo>
    <personinfo id="p68" depart="0.00" type="DEFAULT_PEDTYPE">
        <walk depart="0.00" departPos="221.00" arrival="8.00" arrivalPos="226.67" duration="8.00" routeLength="5.67" timeLoss="3.54" maxSpeed="1.27"/>
        <ride waitingTime="26.00" vehicle="bus.3" depart="34.00" arrival="70.00" arrivalPos="231.67" duration="36.00" routeLength="443.33" timeLoss="4.41"/>
        <walk depart="70.00" departPos="231.67" arrival="86.00" arrivalPos="250.00" duration="16.00" routeLength="18.33" timeLoss="2.80" maxSpeed="1.39"/>
    </personinfo>
    <personinfo id="p69" depart="0.00" type="DEFAULT_PEDTYPE">
        <walk depart="0.00" departPos="221.00" arrival="10.00" arrivalPos="226.67" duration="10.00" routeLength="5.67" timeLoss="6.08" maxSpeed="1.44"/>
        <ride waitingTime="24.00" vehicle="bus.3" depart="34.00" arrival="71.00" arrivalPos="231.67" duration="37.00" routeLength="443.33" timeLoss="4.41"/>
        <walk depart="71.00" departPos="231.67" arrival="86.00" arrivalPos="250.00" duration="15.00" routeLength="18.33" timeLoss="1.80" maxSpeed="1.39"/>
    </personinfo>
    <personinfo id="p18" depart="0.00" type="DEFAULT_PEDTYPE">
        <walk depart="0.00" departPos="221.00" arrival="9.00" arrivalPos="226.67" duration="9.00" routeLength="5.67" timeLoss="4.66" maxSpeed="1.31"/>
        <ride waitingTime="42.00" vehicle="bus.0" depart="51.00" arrival="82.00" arrivalPos="231.67" duration="31.00" routeLength="443.34" timeLoss="4.41"/>
        <walk depart="82.00" departPos="231.67" arrival="97.00" arrivalPos="250.00" duration="15.00" routeLength="18.33" timeLoss="1.80" maxSpeed="1.39"/>
    </personinfo>
    <personinfo id="p102" depart="0.00" type="DEFAULT_PEDTYPE">
        <walk depart="0.00" departPos="221.00" arrival="6.00" arrivalPos="226.67" duration="6.00" routeLength="5.67" timeLoss="1.73" maxSpeed="1.33"/>
        <ride waitingTime="18.00" vehicle="bus.1" depart="24.00" arrival="96.00" arrivalPos="231.67" duration="72.00" routeLength="886.67" timeLoss="8.81"/>
        <walk depart="96.00" departPos="231.67" arrival="111.00" arrivalPos="250.00" duration="15.00" routeLength="18.33" timeLoss="1.80" maxSpeed="1.39"/>
    </personinfo>
    <personinfo id="p118" depart="0.00" type="DEFAULT_PEDTYPE">
        <walk depart="0.00" departPos="221.00" arrival="8.00" arrivalPos="226.67" duration="8.00" routeLength="5.67" timeLoss="3.94" maxSpeed="1.39"/>
        <ride waitingTime="53.00" vehicle="bus.1" depart="61.00" arrival="97.00" arrivalPos="231.67" duration="36.00" routeLength="443.33" timeLoss="4.41"/>
        <walk depart="97.00" departPos="231.67" arrival="112.00" arrivalPos="250.00" duration="15.00" routeLength="18.33" timeLoss="1.80" maxSpeed="1.39"/>
    </personinfo>
    <personinfo id="p91" depart="0.00" type="DEFAULT_PEDTYPE">
        <walk depart="0.00" departPos="221.00" arrival="6.00" arrivalPos="226.67" duration="6.00" routeLength="5.67" timeLoss="1.99" maxSpeed="1.41"/>
        <ride waitingTime="65.00" vehicle="bus.2" depart="71.00" arrival="102.00" arrivalPos="231.67" duration="31.00" routeLength="443.33" timeLoss="4.41"/>
        <walk depart="102.00" departPos="231.67" arrival="117.00" arrivalPos="250.00" duration="15.00" routeLength="18.33" timeLoss="1.80" maxSpeed="1.39"/>
    </personinfo>
    <personinfo id="p92" depart="0.00" type="DEFAULT_PEDTYPE">
        <walk depart="0.00" departPos="221.00" arrival="7.00" arrivalPos="226.67" duration="7.00" routeLength="5.67" timeLoss="2.42" maxSpeed="1.24"/>
        <ride waitingTime="64.00" vehicle="bus.2" depart="71.00" arrival="102.00" arrivalPos="231.67" duration="31.00" routeLength="443.33" timeLoss="4.41"/>
        <walk depart="102.00" departPos="231.67" arrival="117.00" arrivalPos="250.00" duration="15.00" routeLength="18.33" timeLoss="1.80" maxSpeed="1.39"/>
    </personinfo>
    <personinfo id="p96" depart="0.00" type="DEFAULT_PEDTYPE">
        <walk depart="0.00" departPos="221.00" arrival="7.00" arrivalPos="226.67" duration="7.00" routeLength="5.67" timeLoss="3.14" maxSpeed="1.47"/>
        <ride waitingTime="64.00" vehicle="bus.2" depart="71.00" arrival="103.00" arrivalPos="231.67" duration="32.00" routeLength="443.33" timeLoss="4.41"/>
        <walk depart="103.00" departPos="231.67" arrival="118.00" arrivalPos="250.00" duration="15.00" routeLength="18.33" timeLoss="1.80" maxSpeed="1.39"/>
    </personinfo>
    <personinfo id="p35" depart="0.00" type="DEFAULT_PEDTYPE">
        <walk depart="0.00" departPos="221.00" arrival="6.00" arrivalPos="226.67" duration="6.00" routeLength="5.67" timeLoss="1.90" maxSpeed="1.38"/>
        <ride waitingTime="74.00" vehicle="bus.5" depart="80.00" arrival="111.00" arrivalPos="231.67" duration="31.00" routeLength="443.33" timeLoss="4.41"/>
        <walk depart="111.00" departPos="231.67" arrival="126.00" arrivalPos="250.00" duration="15.00" routeLength="18.33" timeLoss="1.80" maxSpeed="1.39"/>
    </personinfo>
    <personinfo id="p62" depart="0.00" type="DEFAULT_PEDTYPE">
        <walk depart="0.00" departPos="221.00" arrival="7.00" arrivalPos="226.67" duration="7.00" routeLength="5.67" timeLoss="3.35" maxSpeed="1.55"/>
        <ride waitingTime="27.00" vehicle="bus.3" depart="34.00" arrival="111.00" arrivalPos="231.67" duration="77.00" routeLength="886.67" timeLoss="8.81"/>
        <walk depart="111.00" departPos="231.67" arrival="126.00" arrivalPos="250.00" duration="15.00" routeLength="18.33" timeLoss="1.80" maxSpeed="1.39"/>
    </personinfo>
    <personinfo id="p63" depart="0.00" type="DEFAULT_PEDTYPE">
        <walk depart="0.00" departPos="221.00" arrival="6.00" arrivalPos="226.67" duration="6.00" routeLength="5.67" timeLoss="1.98" maxSpeed="1.41"/>
        <ride waitingTime="28.00" vehicle="bus.3" depart="34.00" arrival="111.00" arrivalPos="231.67" duration="77.00" routeLength="886.67" timeLoss="8.81"/>
        <walk depart="111.00" departPos="231.67" arrival="126.00" arrivalPos="250.00" duration="15.00" routeLength="18.33" timeLoss="1.80" maxSpeed="1.39"/>
    </personinfo>
    <personinfo id="p36" depart="0.00" type="DEFAULT_PEDTYPE">
        <walk depart="0.00" departPos="221.00" arrival="8.00" arrivalPos="226.67" duration="8.00" routeLength="5.67" timeLoss="4.00" maxSpeed="1.42"/>
        <ride waitingTime="72.00" vehicle="bus.5" depart="80.00" arrival="111.00" arrivalPos="231.67" duration="31.00" routeLength="443.33" timeLoss="4.41"/>
        <walk depart="111.00" departPos="231.67" arrival="127.00" arrivalPos="250.00" duration="16.00" routeLength="18.33" timeLoss="2.80" maxSpeed="1.39"/>
    </personinfo>
    <personinfo id="pStop4.0" depart="33.63" type="DEFAULT_PEDTYPE">
        <walk depart="34.00" departPos="200.00" arrival="55.00" arrivalPos="226.67" duration="21.00" routeLength="26.67" timeLoss="3.03" maxSpeed="1.48"/>
        <ride waitingTime="25.00" vehicle="bus.5" depart="80.00" arrival="111.00" arrivalPos="231.67" duration="31.00" routeLength="443.33" timeLoss="4.41"/>
        <walk depart="111.00" departPos="231.67" arrival="127.00" arrivalPos="250.00" duration="16.00" routeLength="18.33" timeLoss="2.80" maxSpeed="1.39"/>
    </personinfo>
    <personinfo id="p52" depart="0.00" type="DEFAULT_PEDTYPE">
        <walk depart="0.00" departPos="221.00" arrival="7.00" arrivalPos="226.67" duration="7.00" routeLength="5.67" timeLoss="3.51" maxSpeed="1.62"/>
        <ride waitingTime="73.00" vehicle="bus.4" depart="80.00" arrival="112.00" arrivalPos="231.67" duration="32.00" routeLength="443.33" timeLoss="4.41"/>
        <walk depart="112.00" departPos="231.67" arrival="127.00" arrivalPos="250.00" duration="15.00" routeLength="18.33" timeLoss="1.80" maxSpeed="1.39"/>
    </personinfo>
    <personinfo id="p70" depart="0.00" type="DEFAULT_PEDTYPE">
        <walk depart="0.00" departPos="221.00" arrival="10.00" arrivalPos="226.67" duration="10.00" routeLength="5.67" timeLoss="6.01" maxSpeed="1.42"/>
        <ride waitingTime="24.00" vehicle="bus.3" depart="34.00" arrival="111.00" arrivalPos="231.67" duration="77.00" routeLength="886.67" timeLoss="8.81"/>
        <walk depart="111.00" departPos="231.67" arrival="127.00" arrivalPos="250.00" duration="16.00" routeLength="18.33" timeLoss="2.80" maxSpeed="1.39"/>
    </personinfo>
    <personinfo id="p79" depart="0.00" type="DEFAULT_PEDTYPE">
        <walk depart="0.00" departPos="221.00" arrival="10.00" arrivalPos="226.67" duration="10.00" routeLength="5.67" timeLoss="5.95" maxSpeed="1.40"/>
        <ride waitingTime="70.00" vehicle="bus.3" depart="80.00" arrival="112.00" arrivalPos="231.67" duration="32.00" routeLength="443.34" timeLoss="4.41"/>
        <walk depart="112.00" departPos="231.67" arrival="127.00" arrivalPos="250.00" duration="15.00" routeLength="18.33" timeLoss="1.80" maxSpeed="1.39"/>
    </personinfo>
    <personinfo id="p80" depart="0.00" type="DEFAULT_PEDTYPE">
        <walk depart="0.00" departPos="221.00" arrival="11.00" arrivalPos="226.67" duration="11.00" routeLength="5.67" timeLoss="7.24" maxSpeed="1.51"/>
        <ride waitingTime="69.00" vehicle="bus.3" depart="80.00" arrival="113.00" arrivalPos="231.67" duration="33.00" routeLength="443.34" timeLoss="4.41"/>
        <walk depart="113.00" departPos="231.67" arrival="129.00" arrivalPos="250.00" duration="16.00" routeLength="18.33" timeLoss="2.80" maxSpeed="1.39"/>
    </personinfo>
    <personinfo id="pStop8.0" depart="9.91" type="DEFAULT_PEDTYPE">
        <walk depart="10.00" departPos="200.00" arrival="33.00" arrivalPos="226.67" duration="23.00" routeLength="26.67" timeLoss="3.53" maxSpeed="1.37"/>
        <ride waitingTime="47.00" vehicle="bus.3" depart="80.00" arrival="113.00" arrivalPos="231.67" duration="33.00" routeLength="443.34" timeLoss="4.41"/>
        <walk depart="113.00" departPos="231.67" arrival="129.00" arrivalPos="250.00" duration="16.00" routeLength="18.33" timeLoss="2.80" maxSpeed="1.39"/>
    </personinfo>
    <personinfo id="p103" depart="0.00" type="DEFAULT_PEDTYPE">
        <walk depart="0.00" departPos="221.00" arrival="7.00" arrivalPos="226.67" duration="7.00" routeLength="5.67" timeLoss="2.78" maxSpeed="1.34"/>
        <ride waitingTime="17.00" vehicle="bus.1" depart="24.00" arrival="129.00" arrivalPos="231.67" duration="105.00" routeLength="1330.00" timeLoss="13.22"/>
        <walk depart="129.00" departPos="231.67" arrival="144.00" arrivalPos="250.00" duration="15.00" routeLength="18.33" timeLoss="1.80" maxSpeed="1.39"/>
    </personinfo>
    <personinfo id="p114" depart="0.00" type="DEFAULT_PEDTYPE">
        <walk depart="0.00" departPos="221.00" arrival="6.00" arrivalPos="226.67" duration="6.00" routeLength="5.67" timeLoss="1.95" maxSpeed="1.40"/>
        <ride waitingTime="55.00" vehicle="bus.1" depart="61.00" arrival="129.00" arrivalPos="231.67" duration="68.00" routeLength="886.66" timeLoss="8.81"/>
        <walk depart="129.00" departPos="231.67" arrival="145.00" arrivalPos="250.00" duration="16.00" routeLength="18.33" timeLoss="2.80" maxSpeed="1.39"/>
    </personinfo>
    <personinfo id="p1" depart="0.00" type="DEFAULT_PEDTYPE">
        <walk depart="0.00" departPos="221.00" arrival="5.00" arrivalPos="226.67" duration="5.00" routeLength="5.67" timeLoss="1.15" maxSpeed="1.47"/>
        <ride waitingTime="93.00" vehicle="bus.1" depart="98.00" arrival="130.00" arrivalPos="231.67" duration="32.00" routeLength="443.33" timeLoss="4.41"/>
        <walk depart="130.00" departPos="231.67" arrival="146.00" arrivalPos="250.00" duration="16.00" routeLength="18.33" timeLoss="2.80" maxSpeed="1.39"/>
    </personinfo>
    <personinfo id="p116" depart="0.00" type="DEFAULT_PEDTYPE">
        <walk depart="0.00" departPos="221.00" arrival="7.00" arrivalPos="226.67" duration="7.00" routeLength="5.67" timeLoss="2.57" maxSpeed="1.28"/>
        <ride waitingTime="54.00" vehicle="bus.1" depart="61.00" arrival="130.00" arrivalPos="231.67" duration="69.00" routeLength="886.66" timeLoss="8.81"/>
        <walk depart="130.00" departPos="231.67" arrival="146.00" arrivalPos="250.00" duration="16.00" routeLength="18.33" timeLoss="2.80" maxSpeed="1.39"/>
    </personinfo>
    <personinfo id="p4" depart="0.00" type="DEFAULT_PEDTYPE">
        <walk depart="0.00" departPos="221.00" arrival="7.00" arrivalPos="226.67" duration="7.00" routeLength="5.67" timeLoss="3.23" maxSpeed="1.50"/>
        <ride waitingTime="91.00" vehicle="bus.1" depart="98.00" arrival="131.00" arrivalPos="231.67" duration="33.00" routeLength="443.33" timeLoss="4.41"/>
        <walk depart="131.00" departPos="231.67" arrival="147.00" arrivalPos="250.00" duration="16.00" routeLength="18.33" timeLoss="2.80" maxSpeed="1.39"/>
    </personinfo>
    <personinfo id="p6" depart="0.00" type="DEFAULT_PEDTYPE">
        <walk depart="0.00" departPos="221.00" arrival="9.00" arrivalPos="226.67" duration="9.00" routeLength="5.67" timeLoss="4.09" maxSpeed="1.15"/>
        <ride waitingTime="89.00" vehicle="bus.1" depart="98.00" arrival="131.00" arrivalPos="231.67" duration="33.00" routeLength="443.33" timeLoss="4.41"/>
        <walk depart="131.00" departPos="231.67" arrival="147.00" arrivalPos="250.00" duration="16.00" routeLength="18.33" timeLoss="2.80" maxSpeed="1.39"/>
    </personinfo>
    <personinfo id="p100" depart="0.00" type="DEFAULT_PEDTYPE">
        <walk depart="0.00" departPos="221.00" arrival="5.00" arrivalPos="226.67" duration="5.00" routeLength="5.67" timeLoss="1.28" maxSpeed="1.52"/>
        <ride waitingTime="66.00" vehicle="bus.2" depart="71.00" arrival="137.00" arrivalPos="231.67" duration="66.00" routeLength="886.67" timeLoss="8.81"/>
        <walk depart="137.00" departPos="231.67" arrival="152.00" arrivalPos="250.00" duration="15.00" routeLength="18.33" timeLoss="1.80" maxSpeed="1.39"/>
    </personinfo>
    <personinfo id="p99" depart="0.00" type="DEFAULT_PEDTYPE">
        <walk depart="0.00" departPos="221.00" arrival="8.00" arrivalPos="226.67" duration="8.00" routeLength="5.67" timeLoss="4.36" maxSpeed="1.56"/>
        <ride waitingTime="63.00" vehicle="bus.2" depart="71.00" arrival="137.00" arrivalPos="231.67" duration="66.00" routeLength="886.67" timeLoss="8.81"/>
        <walk depart="137.00" departPos="231.67" arrival="153.00" arrivalPos="250.00" duration="16.00" routeLength="18.33" timeLoss="2.80" maxSpeed="1.39"/>
    </personinfo>
    <personinfo id="p11" depart="0.00" type="DEFAULT_PEDTYPE">
        <walk depart="0.00" departPos="221.00" arrival="4.00" arrivalPos="226.67" duration="4.00" routeLength="5.67" timeLoss="0.26" maxSpeed="1.51"/>
        <ride waitingTime="47.00" vehicle="bus.0" depart="51.00" arrival="141.00" arrivalPos="231.67" duration="90.00" routeLength="1330.00" timeLoss="9.22"/>
        <walk depart="141.00" departPos="231.67" arrival="156.00" arrivalPos="250.00" duration="15.00" routeLength="18.33" timeLoss="1.80" maxSpeed="1.39"/>
    </personinfo>
    <personinfo id="p16" depart="0.00" type="DEFAULT_PEDTYPE">
        <walk depart="0.00" departPos="221.00" arrival="8.00" arrivalPos="226.67" duration="8.00" routeLength="5.67" timeLoss="3.60" maxSpeed="1.29"/>
        <ride waitingTime="43.00" vehicle="bus.0" depart="51.00" arrival="141.00" arrivalPos="231.67" duration="90.00" routeLength="1330.00" timeLoss="9.22"/>
        <walk depart="141.00" departPos="231.67" arrival="157.00" arrivalPos="250.00" duration="16.00" routeLength="18.33" timeLoss="2.80" maxSpeed="1.39"/>
    </personinfo>
    <personinfo id="p20" depart="0.00" type="DEFAULT_PEDTYPE">
        <walk depart="0.00" departPos="221.00" arrival="9.00" arrivalPos="226.67" duration="9.00" routeLength="5.67" timeLoss="5.48" maxSpeed="1.61"/>
        <ride waitingTime="42.00" vehicle="bus.0" depart="51.00" arrival="142.00" arrivalPos="231.67" duration="91.00" routeLength="1330.00" timeLoss="9.22"/>
        <walk depart="142.00" departPos="231.67" arrival="157.00" arrivalPos="250.00" duration="15.00" routeLength="18.33" timeLoss="1.80" maxSpeed="1.39"/>
    </personinfo>
    <personinfo id="p61" depart="0.00" type="DEFAULT_PEDTYPE">
        <walk depart="0.00" departPos="221.00" arrival="5.00" arrivalPos="226.67" duration="5.00" routeLength="5.67" timeLoss="1.23" maxSpeed="1.50"/>
        <ride waitingTime="29.00" vehicle="bus.3" depart="34.00" arrival="147.00" arrivalPos="231.67" duration="113.00" routeLength="1330.00" timeLoss="13.22"/>
        <walk depart="147.00" departPos="231.67" arrival="162.00" arrivalPos="250.00" duration="15.00" routeLength="18.33" timeLoss="1.80" maxSpeed="1.39"/>
    </personinfo>
    <personinfo id="p65" depart="0.00" type="DEFAULT_PEDTYPE">
        <walk depart="0.00" departPos="221.00" arrival="6.00" arrivalPos="226.67" duration="6.00" routeLength="5.67" timeLoss="1.65" maxSpeed="1.30"/>
        <ride waitingTime="28.00" vehicle="bus.3" depart="34.00" arrival="147.00" arrivalPos="231.67" duration="113.00" routeLength="1330.00" timeLoss="13.22"/>
        <walk depart="147.00" departPos="231.67" arrival="163.00" arrivalPos="250.00" duration="16.00" routeLength="18.33" timeLoss="2.80" maxSpeed="1.39"/>
    </personinfo>
    <personinfo id="p64" depart="0.00" type="DEFAULT_PEDTYPE">
        <walk depart="0.00" departPos="221.00" arrival="9.00" arrivalPos="226.67" duration="9.00" routeLength="5.67" timeLoss="4.86" maxSpeed="1.37"/>
        <ride waitingTime="25.00" vehicle="bus.3" depart="34.00" arrival="148.00" arrivalPos="231.67" duration="114.00" routeLength="1330.00" timeLoss="13.22"/>
        <walk depart="148.00" departPos="231.67" arrival="164.00" arrivalPos="250.00" duration="16.00" routeLength="18.33" timeLoss="2.80" maxSpeed="1.39"/>
    </personinfo>
    <personinfo id="p74" depart="0.00" type="DEFAULT_PEDTYPE">
        <walk depart="0.00" departPos="221.00" arrival="6.00" arrivalPos="226.67" duration="6.00" routeLength="5.67" timeLoss="2.13" maxSpeed="1.47"/>
        <ride waitingTime="74.00" vehicle="bus.3" depart="80.00" arrival="148.00" arrivalPos="231.67" duration="68.00" routeLength="886.67" timeLoss="8.81"/>
        <walk depart="148.00" departPos="231.67" arrival="164.00" arrivalPos="250.00" duration="16.00" routeLength="18.33" timeLoss="2.80" maxSpeed="1.39"/>
    </personinfo>
    <personinfo id="p75" depart="0.00" type="DEFAULT_PEDTYPE">
        <walk depart="0.00" departPos="221.00" arrival="7.00" arrivalPos="226.67" duration="7.00" routeLength="5.67" timeLoss="2.73" maxSpeed="1.33"/>
        <ride waitingTime="73.00" vehicle="bus.3" depart="80.00" arrival="149.00" arrivalPos="231.67" duration="69.00" routeLength="886.67" timeLoss="8.81"/>
        <walk depart="149.00" departPos="231.67" arrival="165.00" arrivalPos="250.00" duration="16.00" routeLength="18.33" timeLoss="2.80" maxSpeed="1.39"/>
    </personinfo>
    <personinfo id="p23" depart="0.00" type="DEFAULT_PEDTYPE">
        <walk depart="0.00" departPos="221.00" arrival="7.00" arrivalPos="226.67" duration="7.00" routeLength="5.67" timeLoss="2.81" maxSpeed="1.35"/>
        <ride waitingTime="27.00" vehicle="bus.5" depart="34.00" arrival="158.00" arrivalPos="231.67" duration="124.00" routeLength="1330.00" timeLoss="13.22"/>
        <walk depart="158.00" departPos="231.67" arrival="173.00" arrivalPos="250.00" duration="15.00" routeLength="18.33" timeLoss="1.80" maxSpeed="1.39"/>
    </personinfo>
    <personinfo id="p25" depart="0.00" type="DEFAULT_PEDTYPE">
        <walk depart="0.00" departPos="221.00" arrival="8.00" arrivalPos="226.67" duration="8.00" routeLength="5.67" timeLoss="3.06" maxSpeed="1.15"/>
        <ride waitingTime="26.00" vehicle="bus.5" depart="34.00" arrival="158.00" arrivalPos="231.67" duration="124.00" routeLength="1330.00" timeLoss="13.22"/>
        <walk depart="158.00" departPos="231.67" arrival="174.00" arrivalPos="250.00" duration="16.00" routeLength="18.33" timeLoss="2.80" maxSpeed="1.39"/>
    </personinfo>
    <personinfo id="p44" depart="0.00" type="DEFAULT_PEDTYPE">
        <walk depart="0.00" departPos="221.00" arrival="5.00" arrivalPos="226.67" duration="5.00" routeLength="5.67" timeLoss="1.07" maxSpeed="1.44"/>
        <ride waitingTime="29.00" vehicle="bus.4" depart="34.00" arrival="159.00" arrivalPos="231.67" duration="125.00" routeLength="1330.00" timeLoss="13.22"/>
        <walk depart="159.00" departPos="231.67" arrival="174.00" arrivalPos="250.00" duration="15.00" routeLength="18.33" timeLoss="1.80" maxSpeed="1.39"/>
    </personinfo>
    <personinfo id="p34" depart="0.00" type="DEFAULT_PEDTYPE">
        <walk depart="0.00" departPos="221.00" arrival="7.00" arrivalPos="226.67" duration="7.00" routeLength="5.67" timeLoss="3.52" maxSpeed="1.63"/>
        <ride waitingTime="73.00" vehicle="bus.5" depart="80.00" arrival="159.00" arrivalPos="231.67" duration="79.00" routeLength="886.67" timeLoss="8.81"/>
        <walk depart="159.00" departPos="231.67" arrival="175.00" arrivalPos="250.00" duration="16.00" routeLength="18.33" timeLoss="2.80" maxSpeed="1.39"/>
    </personinfo>
    <personinfo id="p38" depart="0.00" type="DEFAULT_PEDTYPE">
        <walk depart="0.00" departPos="221.00" arrival="10.00" arrivalPos="226.67" duration="10.00" routeLength="5.67" timeLoss="6.54" maxSpeed="1.64"/>
        <ride waitingTime="70.00" vehicle="bus.5" depart="80.00" arrival="159.00" arrivalPos="231.67" duration="79.00" routeLength="886.67" timeLoss="8.81"/>
        <walk depart="159.00" departPos="231.67" arrival="175.00" arrivalPos="250.00" duration="16.00" routeLength="18.33" timeLoss="2.80" maxSpeed="1.39"/>
    </personinfo>
    <personinfo id="p48" depart="0.00" type="DEFAULT_PEDTYPE">
        <walk depart="0.00" departPos="221.00" arrival="10.00" arrivalPos="226.67" duration="10.00" routeLength="5.67" timeLoss="5.47" maxSpeed="1.25"/>
        <ride waitingTime="24.00" vehicle="bus.4" depart="34.00" arrival="160.00" arrivalPos="231.67" duration="126.00" routeLength="1330.00" timeLoss="13.22"/>
        <walk depart="160.00" departPos="231.67" arrival="175.00" arrivalPos="250.00" duration="15.00" routeLength="18.33" timeLoss="1.80" maxSpeed="1.39"/>
    </personinfo>
    <personinfo id="p53" depart="0.00" type="DEFAULT_PEDTYPE">
        <walk depart="0.00" departPos="221.00" arrival="8.00" arrivalPos="226.67" duration="8.00" routeLength="5.67" timeLoss="3.99" maxSpeed="1.41"/>
        <ride waitingTime="72.00" vehicle="bus.4" depart="80.00" arrival="160.00" arrivalPos="231.67" duration="80.00" routeLength="886.66" timeLoss="8.81"/>
        <walk depart="160.00" departPos="231.67" arrival="176.00" arrivalPos="250.00" duration="16.00" routeLength="18.33" timeLoss="2.80" maxSpeed="1.39"/>
    </personinfo>
    <personinfo id="p56" depart="0.00" type="DEFAULT_PEDTYPE">
        <walk depart="0.00" departPos="221.00" arrival="9.00" arrivalPos="226.67" duration="9.00" routeLength="5.67" timeLoss="4.90" maxSpeed="1.38"/>
        <ride waitingTime="71.00" vehicle="bus.4" depart="80.00" arrival="161.00" arrivalPos="231.67" duration="81.00" routeLength="886.66" timeLoss="8.81"/>
        <walk depart="161.00" departPos="231.67" arrival="177.00" arrivalPos="250.00" duration="16.00" routeLength="18.33" timeLoss="2.80" maxSpeed="1.39"/>
    </personinfo>
    <personinfo id="p58" depart="0.00" type="DEFAULT_PEDTYPE">
        <walk depart="0.00" departPos="221.00" arrival="11.00" arrivalPos="226.67" duration="11.00" routeLength="5.67" timeLoss="7.43" maxSpeed="1.59"/>
        <ride waitingTime="69.00" vehicle="bus.4" depart="80.00" arrival="161.00" arrivalPos="231.67" duration="81.00" routeLength="886.66" timeLoss="8.81"/>
        <walk depart="161.00" departPos="231.67" arrival="177.00" arrivalPos="250.00" duration="16.00" routeLength="18.33" timeLoss="2.80" maxSpeed="1.39"/>
    </personinfo>
    <personinfo id="pStop7.3" depart="84.39" type="DEFAULT_PEDTYPE">
        <walk depart="85.00" departPos="200.00" arrival="107.00" arrivalPos="226.67" duration="22.00" routeLength="26.67" timeLoss="2.44" maxSpeed="1.36"/>
        <ride waitingTime="19.00" vehicle="bus.4" depart="126.00" arrival="162.00" arrivalPos="231.67" duration="36.00" routeLength="443.33" timeLoss="4.41"/>
        <walk depart="162.00" departPos="231.67" arrival="178.00" arrivalPos="250.00" duration="16.00" routeLength="18.33" timeLoss="2.80" maxSpeed="1.39"/>
    </personinfo>
    <personinfo id="p112" depart="0.00" type="DEFAULT_PEDTYPE">
        <walk depart="0.00" departPos="221.00" arrival="7.00" arrivalPos="226.67" duration="7.00" routeLength="5.67" timeLoss="2.29" maxSpeed="1.20"/>
        <ride waitingTime="54.00" vehicle="bus.1" depart="61.00" arrival="164.00" arrivalPos="231.67" duration="103.00" routeLength="1330.00" timeLoss="13.22"/>
        <walk depart="164.00" departPos="231.67" arrival="179.00" arrivalPos="250.00" duration="15.00" routeLength="18.33" timeLoss="1.80" maxSpeed="1.39"/>
    </personinfo>
    <personinfo id="p7" depart="0.00" type="DEFAULT_PEDTYPE">
        <walk depart="0.00" departPos="221.00" arrival="8.00" arrivalPos="226.67" duration="8.00" routeLength="5.67" timeLoss="4.10" maxSpeed="1.45"/>
        <ride waitingTime="90.00" vehicle="bus.1" depart="98.00" arrival="165.00" arrivalPos="231.67" duration="67.00" routeLength="886.67" timeLoss="8.81"/>
        <walk depart="165.00" departPos="231.67" arrival="180.00" arrivalPos="250.00" duration="15.00" routeLength="18.33" timeLoss="1.80" maxSpeed="1.39"/>
    </personinfo>
    <personinfo id="p86" depart="0.00" type="DEFAULT_PEDTYPE">