<?xml version="1.0" encoding="UTF-8"?>

<!-- generated on 2023-04-13 17:30:40 by Eclipse SUMO GUI Version 1.14.1
<configuration xmlns:xsi="http://www.w3.org/2001/XMLSchema-instance" xsi:noNamespaceSchemaLocation="http://sumo.dlr.de/xsd/sumoConfiguration.xsd">

    <input>
        <net-file value="traffic/ring.net.xml"/>
        <additional-files value="traffic/ring.add.xml,traffic/persons.add.xml"/>
    </input>

    <output>
        <tripinfo-output value="tripinfo.xml"/>
    </output>

    <processing>
        <no-internal-links value="false"/>
        <lanechange.overtake-right value="true"/>
    </processing>

    <report>
        <no-warnings value="true"/>
    </report>

    <traci_server>
        <remote-port value="55611"/>
    </traci_server>

</configuration>
-->

<tripinfos xmlns:xsi="http://www.w3.org/2001/XMLSchema-instance" xsi:noNamespaceSchemaLocation="http://sumo.dlr.de/xsd/tripinfo_file.xsd">
    <personinfo id="p87" depart="0.00" type="DEFAULT_PEDTYPE">
        <walk depart="0.00" departPos="221.00" arrival="9.00" arrivalPos="226.67" duration="9.00" routeLength="5.67" timeLoss="4.93" maxSpeed="1.39"/>
        <ride waitingTime="24.00" vehicle="bus.2" depart="33.00" arrival="65.00" arrivalPos="231.67" duration="32.00" routeLength="443.33" timeLoss="5.83"/>
        <walk depart="65.00" departPos="231.67" arrival="80.00" arrivalPos="250.00" duration="15.00" routeLength="18.33" timeLoss="1.80" maxSpeed="1.39"/>
    </personinfo>
    <personinfo id="p22" depart="0.00" type="DEFAULT_PEDTYPE">
        <walk depart="0.00" departPos="221.00" arrival="6.00" arrivalPos="226.67" duration="6.00" routeLength="5.67" timeLoss="1.96" maxSpeed="1.40"/>
        <ride waitingTime="27.00" vehicle="bus.5" depart="33.00" arrival="66.00" arrivalPos="231.67" duration="33.00" routeLength="443.33" timeLoss="5.83"/>
        <walk depart="66.00" departPos="231.67" arrival="81.00" arrivalPos="250.00" duration="15.00" routeLength="18.33" timeLoss="1.80" maxSpeed="1.39"/>
    </personinfo>
    <personinfo id="p41" depart="0.00" type="DEFAULT_PEDTYPE">
        <walk depart="0.00" departPos="221.00" arrival="5.00" arrivalPos="226.67" duration="5.00" routeLength="5.67" timeLoss="1.04" maxSpeed="1.43"/>
        <ride waitingTime="28.00" vehicle="bus.4" depart="33.00" arrival="66.00" arrivalPos="231.67" duration="33.00" routeLength="443.34" timeLoss="5.83"/>
        <walk depart="66.00" departPos="231.67" arrival="81.00" arrivalPos="250.00" duration="15.00" routeLength="18.33" timeLoss="1.80" maxSpeed="1.39"/>
    </personinfo>
    <personinfo id="p62" depart="0.00" type="DEFAULT_PEDTYPE">
        <walk depart="0.00" departPos="221.00" arrival="7.00" arrivalPos="226.67" duration="7.00" routeLength="5.67" timeLoss="3.35" maxSpeed="1.55"/>
        <ride waitingTime="26.00" vehicle="bus.3" depart="33.00" arrival="66.00" arrivalPos="231.67" duration="33.00" routeLength="443.33" timeLoss="5.83"/>
        <walk depart="66.00" departPos="231.67" arrival="81.00" arrivalPos="250.00" duration="15.00" routeLength="18.33" timeLoss="1.80" maxSpeed="1.39"/>
    </personinfo>
    <personinfo id="p63" depart="0.00" type="DEFAULT_PEDTYPE">
        <walk depart="0.00" departPos="221.00" arrival="6.00" arrivalPos="226.67" duration="6.00" routeLength="5.67" timeLoss="1.98" maxSpeed="1.41"/>
        <ride waitingTime="27.00" vehicle="bus.3" depart="33.00" arrival="66.00" arrivalPos="231.67" duration="33.00" routeLength="443.33" timeLoss="5.83"/>
        <walk depart="66.00" departPos="231.67" arrival="81.00" arrivalPos="250.00" duration="15.00" routeLength="18.33" timeLoss="1.80" maxSpeed="1.39"/>
    </personinfo>
    <personinfo id="p43" depart="0.00" type="DEFAULT_PEDTYPE">
        <walk depart="0.00" departPos="221.00" arrival="6.00" arrivalPos="226.67" duration="6.00" routeLength="5.67" timeLoss="2.26" maxSpeed="1.52"/>
        <ride waitingTime="27.00" vehicle="bus.4" depart="33.00" arrival="66.00" arrivalPos="231.67" duration="33.00" routeLength="443.34" timeLoss="5.83"/>
        <walk depart="66.00" departPos="231.67" arrival="82.00" arrivalPos="250.00" duration="16.00" routeLength="18.33" timeLoss="2.80" maxSpeed="1.39"/>
    </personinfo>
    <personinfo id="p47" depart="0.00" type="DEFAULT_PEDTYPE">
        <walk depart="0.00" departPos="221.00" arrival="7.00" arrivalPos="226.67" duration="7.00" routeLength="5.67" timeLoss="2.91" maxSpeed="1.39"/>
        <ride waitingTime="26.00" vehicle="bus.4" depart="33.00" arrival="67.00" arrivalPos="231.67" duration="34.00" routeLength="443.34" timeLoss="5.83"/>
        <walk depart="67.00" departPos="231.67" arrival="82.00" arrivalPos="250.00" duration="15.00" routeLength="18.33" timeLoss="1.80" maxSpeed="1.39"/>
    </personinfo>
    <personinfo id="p4" depart="0.00" type="DEFAULT_PEDTYPE">
        <walk depart="0.00" departPos="221.00" arrival="7.00" arrivalPos="226.67" duration="7.00" routeLength="5.67" timeLoss="3.23" maxSpeed="1.50"/>
        <ride waitingTime="30.00" vehicle="bus.0" depart="37.00" arrival="70.00" arrivalPos="231.67" duration="33.00" routeLength="443.33" timeLoss="5.83"/>
        <walk depart="70.00" departPos="231.67" arrival="85.00" arrivalPos="250.00" duration="15.00" routeLength="18.33" timeLoss="1.80" maxSpeed="1.39"/>
    </personinfo>
    <personinfo id="p84" depart="0.00" type="DEFAULT_PEDTYPE">
        <walk depart="0.00" departPos="221.00" arrival="8.00" arrivalPos="226.67" duration="8.00" routeLength="5.67" timeLoss="3.78" maxSpeed="1.34"/>
        <ride waitingTime="25.00" vehicle="bus.2" depart="33.00" arrival="104.00" arrivalPos="231.67" duration="71.00" routeLength="886.66" timeLoss="11.67"/>
        <walk depart="104.00" departPos="231.67" arrival="119.00" arrivalPos="250.00" duration="15.00" routeLength="18.33" timeLoss="1.80" maxSpeed="1.39"/>
    </personinfo>
    <personinfo id="p23" depart="0.00" type="DEFAULT_PEDTYPE">
        <walk depart="0.00" departPos="221.00" arrival="7.00" arrivalPos="226.67" duration="7.00" routeLength="5.67" timeLoss="2.81" maxSpeed="1.35"/>
        <ride waitingTime="26.00" vehicle="bus.5" depart="33.00" arrival="104.00" arrivalPos="231.67" duration="71.00" routeLength="886.66" timeLoss="11.67"/>
        <walk depart="104.00" departPos="231.67" arrival="119.00" arrivalPos="250.00" duration="15.00" routeLength="18.33" timeLoss="1.80" maxSpeed="1.39"/>
    </personinfo>
    <personinfo id="p54" depart="0.00" type="DEFAULT_PEDTYPE">
        <walk depart="0.00" departPos="221.00" arrival="6.00" arrivalPos="226.67" duration="6.00" routeLength="5.67" timeLoss="2.28" maxSpeed="1.52"/>
        <ride waitingTime="70.00" vehicle="bus.4" depart="76.00" arrival="104.00" arrivalPos="231.67" duration="28.00" routeLength="443.33" timeLoss="5.83"/>
        <walk depart="104.00" departPos="231.67" arrival="119.00" arrivalPos="250.00" duration="15.00" routeLength="18.33" timeLoss="1.80" maxSpeed="1.39"/>
    </personinfo>
    <personinfo id="p65" depart="0.00" type="DEFAULT_PEDTYPE">
        <walk depart="0.00" departPos="221.00" arrival="6.00" arrivalPos="226.67" duration="6.00" routeLength="5.67" timeLoss="1.65" maxSpeed="1.30"/>
        <ride waitingTime="27.00" vehicle="bus.3" depart="33.00" arrival="104.00" arrivalPos="231.67" duration="71.00" routeLength="886.67" timeLoss="11.67"/>
        <walk depart="104.00" departPos="231.67" arrival="119.00" arrivalPos="250.00" duration="15.00" routeLength="18.33" timeLoss="1.80" maxSpeed="1.39"/>
    </personinfo>
    <personinfo id="p75" depart="0.00" type="DEFAULT_PEDTYPE">
        <walk depart="0.00" departPos="221.00" arrival="7.00" arrivalPos="226.67" duration="7.00" routeLength="5.67" timeLoss="2.73" maxSpeed="1.33"/>
        <ride waitingTime="69.00" vehicle="bus.3" depart="76.00" arrival="104.00" arrivalPos="231.67" duration="28.00" routeLength="443.34" timeLoss="5.83"/>
        <walk depart="104.00" departPos="231.67" arrival="119.00" arrivalPos="250.00" duration="15.00" routeLength="18.33" timeLoss="1.80" maxSpeed="1.39"/>
    </personinfo>
    <personinfo id="p86" depart="0.00" type="DEFAULT_PEDTYPE">
        <walk depart="0.00" departPos="221.00" arrival="7.00" arrivalPos="226.67" duration="7.00" routeLength="5.67" timeLoss="2.82" maxSpeed="1.36"/>
        <ride waitingTime="26.00" vehicle="bus.2" depart="33.00" arrival="104.00" arrivalPos="231.67" duration="71.00" routeLength="886.66" timeLoss="11.67"/>
        <walk depart="104.00" departPos="231.67" arrival="120.00" arrivalPos="250.00" duration="16.00" routeLength="18.33" timeLoss="2.80" maxSpeed="1.39"/>
    </personinfo>
    <personinfo id="p89" depart="0.00" type="DEFAULT_PEDTYPE">
        <walk depart="0.00" departPos="221.00" arrival="9.00" arrivalPos="226.67" duration="9.00" routeLength="5.67" timeLoss="4.95" maxSpeed="1.40"/>
        <ride waitingTime="24.00" vehicle="bus.2" depart="33.00" arrival="105.00" arrivalPos="231.67" duration="72.00" routeLength="886.66" timeLoss="11.67"/>
        <walk depart="105.00" departPos="231.67" arrival="120.00" arrivalPos="250.00" duration="15.00" routeLength="18.33" timeLoss="1.80" maxSpeed="1.39"/>
    </personinfo>
    <personinfo id="p25" depart="0.00" type="DEFAULT_PEDTYPE">
        <walk depart="0.00" departPos="221.00" arrival="8.00" arrivalPos="226.67" duration="8.00" routeLength="5.67" timeLoss="3.06" maxSpeed="1.15"/>
        <ride waitingTime="25.00" vehicle="bus.5" depart="33.00" arrival="104.00" arrivalPos="231.67" duration="71.00" routeLength="886.66" timeLoss="11.67"/>
        <walk depart="104.00" departPos="231.67" arrival="120.00" arrivalPos="250.00" duration="16.00" routeLength="18.33" timeLoss="2.80" maxSpeed="1.39"/>
    </personinfo>
    <personinfo id="p29" depart="0.00" type="DEFAULT_PEDTYPE">
        <walk depart="0.00" departPos="221.00" arrival="11.00" arrivalPos="226.67" duration="11.00" routeLength="5.67" timeLoss="7.39" maxSpeed="1.57"/>
        <ride waitingTime="22.00" vehicle="bus.5" depart="33.00" arrival="104.00" arrivalPos="231.67" duration="71.00" routeLength="886.66" timeLoss="11.67"/>
        <walk depart="104.00" departPos="231.67" arrival="120.00" arrivalPos="250.00" duration="16.00" routeLength="18.33" timeLoss="2.80" maxSpeed="1.39"/>
    </personinfo>
    <personinfo id="p37" depart="0.00" type="DEFAULT_PEDTYPE">
        <walk depart="0.00" departPos="221.00" arrival="8.00" arrivalPos="226.67" duration="8.00" routeLength="5.67" timeLoss="3.81" maxSpeed="1.35"/>
        <ride waitingTime="68.00" vehicle="bus.5" depart="76.00" arrival="105.00" arrivalPos="231.67" duration="29.00" routeLength="443.33" timeLoss="5.83"/>
        <walk depart="105.00" departPos="231.67" arrival="120.00" arrivalPos="250.00" duration="15.00" routeLength="18.33" timeLoss="1.80" maxSpeed="1.39"/>
    </personinfo>
    <personinfo id="p76" depart="0.00" type="DEFAULT_PEDTYPE">
        <walk depart="0.00" departPos="221.00" arrival="8.00" arrivalPos="226.67" duration="8.00" routeLength="5.67" timeLoss="3.86" maxSpeed="1.37"/>
        <ride waitingTime="68.00" vehicle="bus.3" depart="76.00" arrival="104.00" arrivalPos="231.67" duration="28.00" routeLength="443.34" timeLoss="5.83"/>
        <walk depart="104.00" departPos="231.67" arrival="120.00" arrivalPos="250.00" duration="16.00" routeLength="18.33" timeLoss="2.80" maxSpeed="1.39"/>
    </personinfo>
    <personinfo id="p95" depart="0.00" type="DEFAULT_PEDTYPE">
        <walk depart="0.00" departPos="221.00" arrival="8.00" arrivalPos="226.67" duration="8.00" routeLength="5.67" timeLoss="4.26" maxSpeed="1.52"/>
        <ride waitingTime="68.00" vehicle="bus.2" depart="76.00" arrival="105.00" arrivalPos="231.67" duration="29.00" routeLength="443.33" timeLoss="5.83"/>
        <walk depart="105.00" departPos="231.67" arrival="121.00" arrivalPos="250.00" duration="16.00" routeLength="18.33" timeLoss="2.80" maxSpeed="1.39"/>
    </personinfo>
    <personinfo id="pStop4.0" depart="33.63" type="DEFAULT_PEDTYPE">
        <walk depart="34.00" departPos="200.00" arrival="55.00" arrivalPos="226.67" duration="21.00" routeLength="26.67" timeLoss="3.03" maxSpeed="1.48"/>
        <ride waitingTime="21.00" vehicle="bus.5" depart="76.00" arrival="105.00" arrivalPos="231.67" duration="29.00" routeLength="443.33" timeLoss="5.83"/>
        <walk depart="105.00" departPos="231.67" arrival="121.00" arrivalPos="250.00" duration="16.00" routeLength="18.33" timeLoss="2.80" maxSpeed="1.39"/>
    </personinfo>
    <personinfo id="p98" depart="0.00" type="DEFAULT_PEDTYPE">
        <walk depart="0.00" departPos="221.00" arrival="10.00" arrivalPos="226.67" duration="10.00" routeLength="5.67" timeLoss="5.50" maxSpeed="1.26"/>
        <ride waitingTime="66.00" vehicle="bus.2" depart="76.00" arrival="106.00" arrivalPos="231.67" duration="30.00" routeLength="443.33" timeLoss="5.83"/>
        <walk depart="106.00" departPos="231.67" arrival="122.00" arrivalPos="250.00" duration="16.00" routeLength="18.33" timeLoss="2.80" maxSpeed="1.39"/>
    </personinfo>
    <personinfo id="p107" depart="0.00" type="DEFAULT_PEDTYPE">
        <walk depart="0.00" departPos="221.00" arrival="10.00" arrivalPos="226.67" duration="10.00" routeLength="5.67" timeLoss="5.97" maxSpeed="1.41"/>
        <ride waitingTime="23.00" vehicle="bus.1" depart="33.00" arrival="108.00" arrivalPos="231.67" duration="75.00" routeLength="886.67" timeLoss="11.67"/>
        <walk depart="108.00" departPos="231.67" arrival="123.00" arrivalPos="250.00" duration="15.00" routeLength="18.33" timeLoss="1.80" maxSpeed="1.39"/>
    </personinfo>
    <personinfo id="p108" depart="0.00" type="DEFAULT_PEDTYPE">
        <walk depart="0.00" departPos="221.00" arrival="11.00" arrivalPos="226.67" duration="11.00" routeLength="5.67" timeLoss="7.05" maxSpeed="1.44"/>
        <ride waitingTime="22.00" vehicle="bus.1" depart="33.00" arrival="108.00" arrivalPos="231.67" duration="75.00" routeLength="886.67" timeLoss="11.67"/>
        <walk depart="108.00" departPos="231.67" arrival="123.00" arrivalPos="250.00" duration="15.00" routeLength="18.33" timeLoss="1.80" maxSpeed="1.39"/>
    </personinfo>
    <personinfo id="p110" depart="0.00" type="DEFAULT_PEDTYPE">
        <walk depart="0.00" departPos="221.00" arrival="9.00" arrivalPos="226.67" duration="9.00" routeLength="5.67" timeLoss="4.75" maxSpeed="1.33"/>
        <ride waitingTime="24.00" vehicle="bus.1" depart="33.00" arrival="108.00" arrivalPos="231.67" duration="75.00" routeLength="886.67" timeLoss="11.67"/>
        <walk depart="108.00" departPos="231.67" arrival="124.00" arrivalPos="250.00" duration="16.00" routeLength="18.33" timeLoss="2.80" maxSpeed="1.39"/>
    </personinfo>
    <personinfo id="p7" depart="0.00" type="DEFAULT_PEDTYPE">
        <walk depart="0.00" departPos="221.00" arrival="8.00" arrivalPos="226.67" duration="8.00" routeLength="5.67" timeLoss="4.10" maxSpeed="1.45"/>
        <ride waitingTime="29.00" vehicle="bus.0" depart="37.00" arrival="112.00" arrivalPos="231.67" duration="75.00" routeLength="886.67" timeLoss="11.67"/>
        <walk depart="112.00" departPos="231.67" arrival="127.00" arrivalPos="250.00" duration="15.00" routeLength="18.33" timeLoss="1.80" maxSpeed="1.39"/>
    </personinfo>
    <personinfo id="p6" depart="0.00" type="DEFAULT_PEDTYPE">
        <walk depart="0.00" departPos="221.00" arrival="9.00" arrivalPos="226.67" duration="9.00" routeLength="5.67" timeLoss="4.09" maxSpeed="1.15"/>
        <ride waitingTime="28.00" vehicle="bus.0" depart="37.00" arrival="113.00" arrivalPos="231.67" duration="76.00" routeLength="886.67" timeLoss="11.67"/>
        <walk depart="113.00" departPos="231.67" arrival="128.00" arrivalPos="250.00" duration="15.00" routeLength="18.33" timeLoss="1.80" maxSpeed="1.39"/>
    </personinfo>
    <personinfo id="pStop2.1" depart="21.28" type="DEFAULT_PEDTYPE">
        <walk depart="22.00" departPos="200.00" arrival="43.00" arrivalPos="226.67" duration="21.00" routeLength="26.67" timeLoss="2.23" maxSpeed="1.42"/>
        <ride waitingTime="41.00" vehicle="bus.0" depart="84.00" arrival="113.00" arrivalPos="231.67" duration="29.00" routeLength="443.34" timeLoss="5.83"/>
        <walk depart="113.00" departPos="231.67" arrival="129.00" arrivalPos="250.00" duration="16.00" routeLength="18.33" timeLoss="2.80" maxSpeed="1.39"/>
    </personinfo>
    <personinfo id="pStop2.2" depart="62.48" type="DEFAULT_PEDTYPE">
        <walk depart="63.00" departPos="200.00" arrival="83.00" arrivalPos="226.67" duration="20.00" routeLength="26.67" timeLoss="1.71" maxSpeed="1.46"/>
        <ride waitingTime="1.00" vehicle="bus.0" depart="84.00" arrival="114.00" arrivalPos="231.67" duration="30.00" routeLength="443.34" timeLoss="5.83"/>
        <walk depart="114.00" departPos="231.67" arrival="130.00" arrivalPos="250.00" duration="16.00" routeLength="18.33" timeLoss="2.80" maxSpeed="1.39"/>
    </personinfo>
    <personinfo id="p24" depart="0.00" type="DEFAULT_PEDTYPE">
        <walk depart="0.00" departPos="221.00" arrival="8.00" arrivalPos="226.67" duration="8.00" routeLength="5.67" timeLoss="3.41" maxSpeed="1.24"/>
        <ride waitingTime="25.00" vehicle="bus.5" depart="33.00" arrival="147.00" arrivalPos="231.67" duration="114.00" routeLength="1330.00" timeLoss="17.50"/>
        <walk depart="147.00" departPos="231.67" arrival="162.00" arrivalPos="250.00" duration="15.00" routeLength="18.33" timeLoss="1.80" maxSpeed="1.39"/>
    </personinfo>
    <personinfo id="p30" depart="0.00" type="DEFAULT_PEDTYPE">
        <walk depart="0.00" departPos="221.00" arrival="10.00" arrivalPos="226.67" duration="10.00" routeLength="5.67" timeLoss="5.62" maxSpeed="1.29"/>
        <ride waitingTime="23.00" vehicle="bus.5" depart="33.00" arrival="148.00" arrivalPos="231.67" duration="115.00" routeLength="1330.00" timeLoss="17.50"/>
        <walk depart="148.00" departPos="231.67" arrival="163.00" arrivalPos="250.00" duration="15.00" routeLength="18.33" timeLoss="1.80" maxSpeed="1.39"/>
    </personinfo>
    <personinfo id="p69" depart="0.00" type="DEFAULT_PEDTYPE">
        <walk depart="0.00" departPos="221.00" arrival="10.00" arrivalPos="226.67" duration="10.00" routeLength="5.67" timeLoss="6.08" maxSpeed="1.44"/>
        <ride waitingTime="23.00" vehicle="bus.3" depart="33.00" arrival="148.00" arrivalPos="231.67" duration="115.00" routeLength="1330.00" timeLoss="17.50"/>
        <walk depart="148.00" departPos="231.67" arrival="163.00" arrivalPos="250.00" duration="15.00" routeLength="18.33" timeLoss="1.80" maxSpeed="1.39"/>
    </personinfo>
    <personinfo id="p32" depart="0.00" type="DEFAULT_PEDTYPE">
        <walk depart="0.00" departPos="221.00" arrival="5.00" arrivalPos="226.67" duration="5.00" routeLength="5.67" timeLoss="1.46" maxSpeed="1.60"/>
        <ride waitingTime="71.00" vehicle="bus.5" depart="76.00" arrival="148.00" arrivalPos="231.67" duration="72.00" routeLength="886.67" timeLoss="11.67"/>
        <walk depart="148.00" departPos="231.67" arrival="164.00" arrivalPos="250.00" duration="16.00" routeLength="18.33" timeLoss="2.80" maxSpeed="1.39"/>
    </personinfo>
    <personinfo id="p44" depart="0.00" type="DEFAULT_PEDTYPE">
        <walk depart="0.00" departPos="221.00" arrival="5.00" arrivalPos="226.67" duration="5.00" routeLength="5.67" timeLoss="1.07" maxSpeed="1.44"/>
        <ride waitingTime="28.00" vehicle="bus.4" depart="33.00" arrival="149.00" arrivalPos="231.67" duration="116.00" routeLength="1330.00" timeLoss="17.50"/>
        <walk depart="149.00" departPos="231.67" arrival="164.00" arrivalPos="250.00" duration="15.00" routeLength="18.33" timeLoss="1.80" maxSpeed="1.39"/>
    </personinfo>
    <personinfo id="p70" depart="0.00" type="DEFAULT_PEDTYPE">
        <walk depart="0.00" departPos="221.00" arrival="10.00" arrivalPos="226.67" duration="10.00" routeLength="5.67" timeLoss="6.01" maxSpeed="1.42"/>
        <ride waitingTime="23.00" vehicle="bus.3" depart="33.00" arrival="148.00" arrivalPos="231.67" duration="115.00" routeLength="1330.00" timeLoss="17.50"/>
        <walk depart="148.00" departPos="231.67" arrival="164.00" arrivalPos="250.00" duration="16.00" routeLength="18.33" timeLoss="2.80" maxSpeed="1.39"/>
    </personinfo>
    <personinfo id="p73" depart="0.00" type="DEFAULT_PEDTYPE">
        <walk depart="0.00" departPos="221.00" arrival="7.00" arrivalPos="226.67" duration="7.00" routeLength="5.67" timeLoss="2.66" maxSpeed="1.31"/>
        <ride waitingTime="69.00" vehicle="bus.3" depart="76.00" arrival="149.00" arrivalPos="231.67" duration="73.00" routeLength="886.67" timeLoss="11.67"/>
        <walk depart="149.00" departPos="231.67" arrival="164.00" arrivalPos="250.00" duration="15.00" routeLength="18.33" timeLoss="1.80" maxSpeed="1.39"/>
    </personinfo>
    <personinfo id="p36" depart="0.00" type="DEFAULT_PEDTYPE">
        <walk depart="0.00" departPos="221.00" arrival="8.00" arrivalPos="226.67" duration="8.00" routeLength="5.67" timeLoss="4.00" maxSpeed="1.42"/>
        <ride waitingTime="68.00" vehicle="bus.5" depart="76.00" arrival="149.00" arrivalPos="231.67" duration="73.00" routeLength="886.67" timeLoss="11.67"/>
        <walk depart="149.00" departPos="231.67" arrival="165.00" arrivalPos="250.00" duration="16.00" routeLength="18.33" timeLoss="2.80" maxSpeed="1.39"/>
    </personinfo>
    <personinfo id="p40" depart="0.00" type="DEFAULT_PEDTYPE">
        <walk depart="0.00" departPos="221.00" arrival="11.00" arrivalPos="226.67" duration="11.00" routeLength="5.67" timeLoss="6.47" maxSpeed="1.25"/>
        <ride waitingTime="65.00" vehicle="bus.5" depart="76.00" arrival="149.00" arrivalPos="231.67" duration="73.00" routeLength="886.67" timeLoss="11.67"/>
        <walk depart="149.00" departPos="231.67" arrival="165.00" arrivalPos="250.00" duration="16.00" routeLength="18.33" timeLoss="2.80" maxSpeed="1.39"/>
    </personinfo>
    <personinfo id="p46" depart="0.00" type="DEFAULT_PEDTYPE">
        <walk depart="0.00" departPos="221.00" arrival="8.00" arrivalPos="226.67" duration="8.00" routeLength="5.67" timeLoss="4.25" maxSpeed="1.51"/>
        <ride waitingTime="25.00" vehicle="bus.4" depart="33.00" arrival="149.00" arrivalPos="231.67" duration="116.00" routeLength="1330.00" timeLoss="17.50"/>
        <walk depart="149.00" departPos="231.67" arrival="165.00" arrivalPos="250.00" duration="16.00" routeLength="18.33" timeLoss="2.80" maxSpeed="1.39"/>
    </personinfo>
    <personinfo id="p78" depart="0.00" type="DEFAULT_PEDTYPE">
        <walk depart="0.00" departPos="221.00" arrival="9.00" arrivalPos="226.67" duration="9.00" routeLength="5.67" timeLoss="4.84" maxSpeed="1.36"/>
        <ride waitingTime="67.00" vehicle="bus.3" depart="76.00" arrival="149.00" arrivalPos="231.67" duration="73.00" routeLength="886.67" timeLoss="11.67"/>
        <walk depart="149.00" departPos="231.67" arrival="165.00" arrivalPos="250.00" duration="16.00" routeLength="18.33" timeLoss="2.80" maxSpeed="1.39"/>
    </personinfo>
    <personinfo id="p53" depart="0.00" type="DEFAULT_PEDTYPE">
        <walk depart="0.00" departPos="221.00" arrival="8.00" arrivalPos="226.67" duration="8.00" routeLength="5.67" timeLoss="3.99" maxSpeed="1.41"/>
        <ride waitingTime="68.00" vehicle="bus.4" depart="76.00" arrival="150.00" arrivalPos="231.67" duration="74.00" routeLength="886.66" timeLoss="11.67"/>
        <walk depart="150.00" departPos="231.67" arrival="166.00" arrivalPos="250.00" duration="16.00" routeLength="18.33" timeLoss="2.80" maxSpeed="1.39"/>
    </personinfo>
    <personinfo id="p60" depart="0.00" type="DEFAULT_PEDTYPE">
        <walk depart="0.00" departPos="221.00" arrival="10.00" arrivalPos="226.67" duration="10.00" routeLength="5.67" timeLoss="5.79" maxSpeed="1.35"/>
        <ride waitingTime="66.00" vehicle="bus.4" depart="76.00" arrival="150.00" arrivalPos="231.67" duration="74.00" routeLength="886.66" timeLoss="11.67"/>
        <walk depart="150.00" departPos="231.67" arrival="166.00" arrivalPos="250.00" duration="16.00" routeLength="18.33" timeLoss="2.80" maxSpeed="1.39"/>
    </personinfo>
    <personinfo id="pStop9.0" depart="86.58" type="DEFAULT_PEDTYPE">
        <walk depart="87.00" departPos="200.00" arrival="112.00" arrivalPos="226.67" duration="25.00" routeLength="26.67" timeLoss="2.85" maxSpeed="1.20"/>
        <ride waitingTime="7.00" vehicle="bus.3" depart="119.00" arrival="150.00" arrivalPos="231.67" duration="31.00" routeLength="443.33" timeLoss="5.83"/>
        <walk depart="150.00" departPos="231.67" arrival="166.00" arrivalPos="250.00" duration="16.00" routeLength="18.33" timeLoss="2.80" maxSpeed="1.39"/>
    </personinfo>
    <personinfo id="p79" depart="0.00" type="DEFAULT_PEDTYPE">
        <walk depart="0.00" departPos="221.00" arrival="10.00" arrivalPos="226.67" duration="10.00" routeLength="5.67" timeLoss="5.95" maxSpeed="1.40"/>
        <ride waitingTime="66.00" vehicle="bus.3" depart="76.00" arrival="150.00" arrivalPos="231.67" duration="74.00" routeLength="886.67" timeLoss="11.67"/>
        <walk depart="150.00" departPos="231.67" arrival="166.00" arrivalPos="250.00" duration="16.00" routeLength="18.33" timeLoss="2.80" maxSpeed="1.39"/>
    </personinfo>
    <personinfo id="p96" depart="0.00" type="DEFAULT_PEDTYPE">
        <walk depart="0.00" departPos="221.00" arrival="7.00" arrivalPos="226.67" duration="7.00" routeLength="5.67" timeLoss="3.14" maxSpeed="1.47"/>
        <ride waitingTime="69.00" vehicle="bus.2" depart="76.00" arrival="152.00" arrivalPos="231.67" duration="76.00" routeLength="886.67" timeLoss="11.67"/>
        <walk depart="152.00" departPos="231.67" arrival="167.00" arrivalPos="250.00" duration="15.00" routeLength="18.33" timeLoss="1.80" maxSpeed="1.39"/>
    </personinfo>
    <personinfo id="p101" depart="0.00" type="DEFAULT_PEDTYPE">
        <walk depart="0.00" departPos="221.00" arrival="5.00" arrivalPos="226.67" duration="5.00" routeLength="5.67" timeLoss="1.17" maxSpeed="1.48"/>
        <ride waitingTime="28.00" vehicle="bus.1" depart="33.00" arrival="153.00" arrivalPos="231.67" duration="120.00" routeLength="1330.00" timeLoss="17.50"/>
        <walk depart="153.00" departPos="231.67" arrival="168.00" arrivalPos="250.00" duration="15.00" routeLength="18.33" timeLoss="1.80" maxSpeed="1.39"/>
    </personinfo>
    <personinfo id="p102" depart="0.00" type="DEFAULT_PEDTYPE">
        <walk depart="0.00" departPos="221.00" arrival="6.00" arrivalPos="226.67" duration="6.00" routeLength="5.67" timeLoss="1.73" maxSpeed="1.33"/>
        <ride waitingTime="27.00" vehicle="bus.1" depart="33.00" arrival="153.00" arrivalPos="231.67" duration="120.00" routeLength="1330.00" timeLoss="17.50"/>
        <walk depart="153.00" departPos="231.67" arrival="169.00" arrivalPos="250.00" duration="16.00" routeLength="18.33" timeLoss="2.80" maxSpeed="1.39"/>
    </personinfo>
    <personinfo id="p111" depart="0.00" type="DEFAULT_PEDTYPE">
        <walk depart="0.00" departPos="221.00" arrival="5.00" arrivalPos="226.67" duration="5.00" routeLength="5.67" timeLoss="0.60" maxSpeed="1.29"/>
        <ride waitingTime="75.00" vehicle="bus.1" depart="80.00" arrival="153.00" arrivalPos="231.67" duration="73.00" routeLength="886.66" timeLoss="11.67"/>
        <walk depart="153.00" departPos="231.67" arrival="169.00" arrivalPos="250.00" duration="16.00" routeLength="18.33" timeLoss="2.80" maxSpeed="1.39"/>
    </personinfo>
    <personinfo id="p113" depart="0.00" type="DEFAULT_PEDTYPE">
        <walk depart="0.00" departPos="221.00" arrival="6.00" arrivalPos="226.67" duration="6.00" routeLength="5.67" timeLoss="2.28" maxSpeed="1.53"/>
        <ride waitingTime="74.00" vehicle="bus.1" depart="80.00" arrival="154.00" arrivalPos="231.67" duration="74.00" routeLength="886.66" timeLoss="11.67"/>
        <walk depart="154.00" departPos="231.67" arrival="169.00" arrivalPos="250.00" duration="15.00" routeLength="18.33" timeLoss="1.80" maxSpeed="1.39"/>
    </personinfo>
    <personinfo id="p10" depart="0.00" type="DEFAULT_PEDTYPE">
        <walk depart="0.00" departPos="221.00" arrival="6.00" arrivalPos="226.67" duration="6.00" routeLength="5.67" timeLoss="1.24" maxSpeed="1.19"/>
        <ride waitingTime="31.00" vehicle="bus.0" depart="37.00" arrival="158.00" arrivalPos="231.67" duration="121.00" routeLength="1330.00" timeLoss="17.50"/>
        <walk depart="158.00" departPos="231.67" arrival="173.00" arrivalPos="250.00" duration="15.00" routeLength="18.33" timeLoss="1.80" maxSpeed="1.39"/>
    </personinfo>
    <personinfo id="p11" depart="0.00" type="DEFAULT_PEDTYPE">
        <walk depart="0.00" departPos="221.00" arrival="4.00" arrivalPos="226.67" duration="4.00" routeLength="5.67" timeLoss="0.26" maxSpeed="1.51"/>
        <ride waitingTime="80.00" vehicle="bus.0" depart="84.00" arrival="158.00" arrivalPos="231.67" duration="74.00" routeLength="886.67" timeLoss="11.67"/>
        <walk depart="158.00" departPos="231.67" arrival="174.00" arrivalPos="250.00" duration="16.00" routeLength="18.33" timeLoss="2.80" maxSpeed="1.39"/>
    </personinfo>
    <personinfo id="p17" depart="0.00" type="DEFAULT_PEDTYPE">
        <walk depart="0.00" departPos="221.00" arrival="10.00" arrivalPos="226.67" duration="10.00" routeLength="5.67" timeLoss="5.35" maxSpeed="1.22"/>
        <ride waitingTime="74.00" vehicle="bus.0" depart="84.00" arrival="158.00" arrivalPos="231.67" duration="74.00" routeLength="886.67" timeLoss="11.67"/>
        <walk depart="158.00" departPos="231.67" arrival="174.00" arrivalPos="250.00" duration="16.00" routeLength="18.33" timeLoss="2.80" maxSpeed="1.39"/>
    </personinfo>
    <personinfo id="pStop3.0" depart="62.97" type="DEFAULT_PEDTYPE">
        <walk depart="63.00" departPos="200.00" arrival="86.00" arrivalPos="226.67" duration="23.00" routeLength="26.67" timeLoss="3.08" maxSpeed="1.34"/>
        <ride waitingTime="44.00" vehicle="bus.0" depart="130.00" arrival="159.00" arrivalPos="231.67" duration="29.00" routeLength="443.33" timeLoss="5.83"/>