<?xml version="1.0" encoding="UTF-8"?>

<!-- generated on 2023-02-25 17:43:46 by Eclipse SUMO GUI Version 1.14.1
<configuration xmlns:xsi="http://www.w3.org/2001/XMLSchema-instance" xsi:noNamespaceSchemaLocation="http://sumo.dlr.de/xsd/sumoConfiguration.xsd">

    <input>
        <net-file value="ring.net.xml"/>
        <additional-files value="ring.add.xml,persons.add.xml"/>
    </input>

    <output>
        <tripinfo-output value="tripinfo.xml"/>
    </output>

    <processing>
        <no-internal-links value="false"/>
    </processing>

    <report>
        <no-warnings value="true"/>
    </report>

    <traci_server>
        <remote-port value="49262"/>
    </traci_server>

</configuration>
-->

<tripinfos xmlns:xsi="http://www.w3.org/2001/XMLSchema-instance" xsi:noNamespaceSchemaLocation="http://sumo.dlr.de/xsd/tripinfo_file.xsd">
    <personinfo id="p107" depart="0.00" type="DEFAULT_PEDTYPE">
        <walk depart="0.00" departPos="221.00" arrival="10.00" arrivalPos="226.67" duration="10.00" routeLength="5.67" timeLoss="5.97" maxSpeed="1.41"/>
        <ride waitingTime="24.00" vehicle="bus.1" depart="34.00" arrival="69.00" arrivalPos="231.67" duration="35.00" routeLength="443.34" timeLoss="4.41"/>
        <walk depart="69.00" departPos="231.67" arrival="84.00" arrivalPos="250.00" duration="15.00" routeLength="18.33" timeLoss="1.80" maxSpeed="1.39"/>
    </personinfo>
    <personinfo id="p82" depart="0.00" type="DEFAULT_PEDTYPE">
        <walk depart="0.00" departPos="221.00" arrival="6.00" arrivalPos="226.67" duration="6.00" routeLength="5.67" timeLoss="1.91" maxSpeed="1.39"/>
        <ride waitingTime="28.00" vehicle="bus.2" depart="34.00" arrival="69.00" arrivalPos="231.67" duration="35.00" routeLength="443.33" timeLoss="4.41"/>
        <walk depart="69.00" departPos="231.67" arrival="84.00" arrivalPos="250.00" duration="15.00" routeLength="18.33" timeLoss="1.80" maxSpeed="1.39"/>
    </personinfo>
    <personinfo id="p108" depart="0.00" type="DEFAULT_PEDTYPE">
        <walk depart="0.00" departPos="221.00" arrival="11.00" arrivalPos="226.67" duration="11.00" routeLength="5.67" timeLoss="7.05" maxSpeed="1.44"/>
        <ride waitingTime="23.00" vehicle="bus.1" depart="34.00" arrival="70.00" arrivalPos="231.67" duration="36.00" routeLength="443.34" timeLoss="4.41"/>
        <walk depart="70.00" departPos="231.67" arrival="85.00" arrivalPos="250.00" duration="15.00" routeLength="18.33" timeLoss="1.80" maxSpeed="1.39"/>
    </personinfo>
    <personinfo id="p21" depart="0.00" type="DEFAULT_PEDTYPE">
        <walk depart="0.00" departPos="221.00" arrival="5.00" arrivalPos="226.67" duration="5.00" routeLength="5.67" timeLoss="0.99" maxSpeed="1.41"/>
        <ride waitingTime="29.00" vehicle="bus.5" depart="34.00" arrival="70.00" arrivalPos="231.67" duration="36.00" routeLength="443.33" timeLoss="4.41"/>
        <walk depart="70.00" departPos="231.67" arrival="85.00" arrivalPos="250.00" duration="15.00" routeLength="18.33" timeLoss="1.80" maxSpeed="1.39"/>
    </personinfo>
    <personinfo id="p41" depart="0.00" type="DEFAULT_PEDTYPE">
        <walk depart="0.00" departPos="221.00" arrival="5.00" arrivalPos="226.67" duration="5.00" routeLength="5.67" timeLoss="1.04" maxSpeed="1.43"/>
        <ride waitingTime="29.00" vehicle="bus.4" depart="34.00" arrival="70.00" arrivalPos="231.67" duration="36.00" routeLength="443.34" timeLoss="4.41"/>
        <walk depart="70.00" departPos="231.67" arrival="85.00" arrivalPos="250.00" duration="15.00" routeLength="18.33" timeLoss="1.80" maxSpeed="1.39"/>
    </personinfo>
    <personinfo id="p62" depart="0.00" type="DEFAULT_PEDTYPE">
        <walk depart="0.00" departPos="221.00" arrival="7.00" arrivalPos="226.67" duration="7.00" routeLength="5.67" timeLoss="3.35" maxSpeed="1.55"/>
        <ride waitingTime="27.00" vehicle="bus.3" depart="34.00" arrival="70.00" arrivalPos="231.67" duration="36.00" routeLength="443.33" timeLoss="4.41"/>
        <walk depart="70.00" departPos="231.67" arrival="85.00" arrivalPos="250.00" duration="15.00" routeLength="18.33" timeLoss="1.80" maxSpeed="1.39"/>
    </personinfo>
    <personinfo id="p88" depart="0.00" type="DEFAULT_PEDTYPE">
        <walk depart="0.00" departPos="221.00" arrival="10.00" arrivalPos="226.67" duration="10.00" routeLength="5.67" timeLoss="6.09" maxSpeed="1.45"/>
        <ride waitingTime="24.00" vehicle="bus.2" depart="34.00" arrival="70.00" arrivalPos="231.67" duration="36.00" routeLength="443.33" timeLoss="4.41"/>
        <walk depart="70.00" departPos="231.67" arrival="85.00" arrivalPos="250.00" duration="15.00" routeLength="18.33" timeLoss="1.80" maxSpeed="1.39"/>
    </personinfo>
    <personinfo id="p89" depart="0.00" type="DEFAULT_PEDTYPE">
        <walk depart="0.00" departPos="221.00" arrival="9.00" arrivalPos="226.67" duration="9.00" routeLength="5.67" timeLoss="4.95" maxSpeed="1.40"/>
        <ride waitingTime="25.00" vehicle="bus.2" depart="34.00" arrival="70.00" arrivalPos="231.67" duration="36.00" routeLength="443.33" timeLoss="4.41"/>
        <walk depart="70.00" departPos="231.67" arrival="85.00" arrivalPos="250.00" duration="15.00" routeLength="18.33" timeLoss="1.80" maxSpeed="1.39"/>
    </personinfo>
    <personinfo id="p22" depart="0.00" type="DEFAULT_PEDTYPE">
        <walk depart="0.00" departPos="221.00" arrival="6.00" arrivalPos="226.67" duration="6.00" routeLength="5.67" timeLoss="1.96" maxSpeed="1.40"/>
        <ride waitingTime="28.00" vehicle="bus.5" depart="34.00" arrival="70.00" arrivalPos="231.67" duration="36.00" routeLength="443.33" timeLoss="4.41"/>
        <walk depart="70.00" departPos="231.67" arrival="86.00" arrivalPos="250.00" duration="16.00" routeLength="18.33" timeLoss="2.80" maxSpeed="1.39"/>
    </personinfo>
    <personinfo id="p90" depart="0.00" type="DEFAULT_PEDTYPE">
        <walk depart="0.00" departPos="221.00" arrival="10.00" arrivalPos="226.67" duration="10.00" routeLength="5.67" timeLoss="6.01" maxSpeed="1.42"/>
        <ride waitingTime="24.00" vehicle="bus.2" depart="34.00" arrival="71.00" arrivalPos="231.67" duration="37.00" routeLength="443.33" timeLoss="4.41"/>
        <walk depart="71.00" departPos="231.67" arrival="86.00" arrivalPos="250.00" duration="15.00" routeLength="18.33" timeLoss="1.80" maxSpeed="1.39"/>
    </personinfo>
    <personinfo id="p7" depart="0.00" type="DEFAULT_PEDTYPE">
        <walk depart="0.00" departPos="221.00" arrival="8.00" arrivalPos="226.67" duration="8.00" routeLength="5.67" timeLoss="4.10" maxSpeed="1.45"/>
        <ride waitingTime="30.00" vehicle="bus.0" depart="38.00" arrival="74.00" arrivalPos="231.67" duration="36.00" routeLength="443.33" timeLoss="4.41"/>
        <walk depart="74.00" departPos="231.67" arrival="89.00" arrivalPos="250.00" duration="15.00" routeLength="18.33" timeLoss="1.80" maxSpeed="1.39"/>
    </personinfo>
    <personinfo id="p8" depart="0.00" type="DEFAULT_PEDTYPE">
        <walk depart="0.00" departPos="221.00" arrival="10.00" arrivalPos="226.67" duration="10.00" routeLength="5.67" timeLoss="5.39" maxSpeed="1.23"/>
        <ride waitingTime="28.00" vehicle="bus.0" depart="38.00" arrival="75.00" arrivalPos="231.67" duration="37.00" routeLength="443.33" timeLoss="4.41"/>
        <walk depart="75.00" departPos="231.67" arrival="90.00" arrivalPos="250.00" duration="15.00" routeLength="18.33" timeLoss="1.80" maxSpeed="1.39"/>
    </personinfo>
    <personinfo id="p84" depart="0.00" type="DEFAULT_PEDTYPE">
        <walk depart="0.00" departPos="221.00" arrival="8.00" arrivalPos="226.67" duration="8.00" routeLength="5.67" timeLoss="3.78" maxSpeed="1.34"/>
        <ride waitingTime="26.00" vehicle="bus.2" depart="34.00" arrival="111.00" arrivalPos="231.67" duration="77.00" routeLength="886.66" timeLoss="8.81"/>
        <walk depart="111.00" departPos="231.67" arrival="126.00" arrivalPos="250.00" duration="15.00" routeLength="18.33" timeLoss="1.80" maxSpeed="1.39"/>
    </personinfo>
    <personinfo id="p30" depart="0.00" type="DEFAULT_PEDTYPE">
        <walk depart="0.00" departPos="221.00" arrival="10.00" arrivalPos="226.67" duration="10.00" routeLength="5.67" timeLoss="5.62" maxSpeed="1.29"/>
        <ride waitingTime="24.00" vehicle="bus.5" depart="34.00" arrival="111.00" arrivalPos="231.67" duration="77.00" routeLength="886.66" timeLoss="8.81"/>
        <walk depart="111.00" departPos="231.67" arrival="126.00" arrivalPos="250.00" duration="15.00" routeLength="18.33" timeLoss="1.80" maxSpeed="1.39"/>
    </personinfo>
    <personinfo id="p78" depart="0.00" type="DEFAULT_PEDTYPE">
        <walk depart="0.00" departPos="221.00" arrival="9.00" arrivalPos="226.67" duration="9.00" routeLength="5.67" timeLoss="4.84" maxSpeed="1.36"/>
        <ride waitingTime="71.00" vehicle="bus.3" depart="80.00" arrival="111.00" arrivalPos="231.67" duration="31.00" routeLength="443.34" timeLoss="4.41"/>
        <walk depart="111.00" departPos="231.67" arrival="126.00" arrivalPos="250.00" duration="15.00" routeLength="18.33" timeLoss="1.80" maxSpeed="1.39"/>
    </personinfo>
    <personinfo id="p99" depart="0.00" type="DEFAULT_PEDTYPE">
        <walk depart="0.00" departPos="221.00" arrival="8.00" arrivalPos="226.67" duration="8.00" routeLength="5.67" timeLoss="4.36" maxSpeed="1.56"/>
        <ride waitingTime="72.00" vehicle="bus.2" depart="80.00" arrival="111.00" arrivalPos="231.67" duration="31.00" routeLength="443.33" timeLoss="4.41"/>
        <walk depart="111.00" departPos="231.67" arrival="127.00" arrivalPos="250.00" duration="16.00" routeLength="18.33" timeLoss="2.80" maxSpeed="1.39"/>
    </personinfo>
    <personinfo id="p40" depart="0.00" type="DEFAULT_PEDTYPE">
        <walk depart="0.00" departPos="221.00" arrival="11.00" arrivalPos="226.67" duration="11.00" routeLength="5.67" timeLoss="6.47" maxSpeed="1.25"/>
        <ride waitingTime="69.00" vehicle="bus.5" depart="80.00" arrival="111.00" arrivalPos="231.67" duration="31.00" routeLength="443.33" timeLoss="4.41"/>
        <walk depart="111.00" departPos="231.67" arrival="127.00" arrivalPos="250.00" duration="16.00" routeLength="18.33" timeLoss="2.80" maxSpeed="1.39"/>
    </personinfo>
    <personinfo id="p44" depart="0.00" type="DEFAULT_PEDTYPE">
        <walk depart="0.00" departPos="221.00" arrival="5.00" arrivalPos="226.67" duration="5.00" routeLength="5.67" timeLoss="1.07" maxSpeed="1.44"/>
        <ride waitingTime="29.00" vehicle="bus.4" depart="34.00" arrival="112.00" arrivalPos="231.67" duration="78.00" routeLength="886.67" timeLoss="8.81"/>
        <walk depart="112.00" departPos="231.67" arrival="127.00" arrivalPos="250.00" duration="15.00" routeLength="18.33" timeLoss="1.80" maxSpeed="1.39"/>
    </personinfo>
    <personinfo id="p95" depart="0.00" type="DEFAULT_PEDTYPE">
        <walk depart="0.00" departPos="221.00" arrival="8.00" arrivalPos="226.67" duration="8.00" routeLength="5.67" timeLoss="4.26" maxSpeed="1.52"/>
        <ride waitingTime="72.00" vehicle="bus.2" depart="80.00" arrival="112.00" arrivalPos="231.67" duration="32.00" routeLength="443.33" timeLoss="4.41"/>
        <walk depart="112.00" departPos="231.67" arrival="128.00" arrivalPos="250.00" duration="16.00" routeLength="18.33" timeLoss="2.80" maxSpeed="1.39"/>
    </personinfo>
    <personinfo id="p46" depart="0.00" type="DEFAULT_PEDTYPE">
        <walk depart="0.00" departPos="221.00" arrival="8.00" arrivalPos="226.67" duration="8.00" routeLength="5.67" timeLoss="4.25" maxSpeed="1.51"/>
        <ride waitingTime="26.00" vehicle="bus.4" depart="34.00" arrival="112.00" arrivalPos="231.67" duration="78.00" routeLength="886.67" timeLoss="8.81"/>
        <walk depart="112.00" departPos="231.67" arrival="128.00" arrivalPos="250.00" duration="16.00" routeLength="18.33" timeLoss="2.80" maxSpeed="1.39"/>
    </personinfo>
    <personinfo id="p52" depart="0.00" type="DEFAULT_PEDTYPE">
        <walk depart="0.00" departPos="221.00" arrival="7.00" arrivalPos="226.67" duration="7.00" routeLength="5.67" timeLoss="3.51" maxSpeed="1.62"/>
        <ride waitingTime="73.00" vehicle="bus.4" depart="80.00" arrival="113.00" arrivalPos="231.67" duration="33.00" routeLength="443.33" timeLoss="4.41"/>
        <walk depart="113.00" departPos="231.67" arrival="129.00" arrivalPos="250.00" duration="16.00" routeLength="18.33" timeLoss="2.80" maxSpeed="1.39"/>
    </personinfo>
    <personinfo id="p56" depart="0.00" type="DEFAULT_PEDTYPE">
        <walk depart="0.00" departPos="221.00" arrival="9.00" arrivalPos="226.67" duration="9.00" routeLength="5.67" timeLoss="4.90" maxSpeed="1.38"/>
        <ride waitingTime="71.00" vehicle="bus.4" depart="80.00" arrival="113.00" arrivalPos="231.67" duration="33.00" routeLength="443.33" timeLoss="4.41"/>
        <walk depart="113.00" departPos="231.67" arrival="129.00" arrivalPos="250.00" duration="16.00" routeLength="18.33" timeLoss="2.80" maxSpeed="1.39"/>
    </personinfo>
    <personinfo id="p104" depart="0.00" type="DEFAULT_PEDTYPE">
        <walk depart="0.00" departPos="221.00" arrival="8.00" arrivalPos="226.67" duration="8.00" routeLength="5.67" timeLoss="3.71" maxSpeed="1.32"/>
        <ride waitingTime="26.00" vehicle="bus.1" depart="34.00" arrival="115.00" arrivalPos="231.67" duration="81.00" routeLength="886.67" timeLoss="8.81"/>
        <walk depart="115.00" departPos="231.67" arrival="130.00" arrivalPos="250.00" duration="15.00" routeLength="18.33" timeLoss="1.80" maxSpeed="1.39"/>
    </personinfo>
    <personinfo id="p59" depart="0.00" type="DEFAULT_PEDTYPE">
        <walk depart="0.00" departPos="221.00" arrival="12.00" arrivalPos="226.67" duration="12.00" routeLength="5.67" timeLoss="8.01" maxSpeed="1.42"/>
        <ride waitingTime="68.00" vehicle="bus.4" depart="80.00" arrival="114.00" arrivalPos="231.67" duration="34.00" routeLength="443.33" timeLoss="4.41"/>
        <walk depart="114.00" departPos="231.67" arrival="130.00" arrivalPos="250.00" duration="16.00" routeLength="18.33" timeLoss="2.80" maxSpeed="1.39"/>
    </personinfo>
    <personinfo id="p111" depart="0.00" type="DEFAULT_PEDTYPE">
        <walk depart="0.00" departPos="221.00" arrival="5.00" arrivalPos="226.67" duration="5.00" routeLength="5.67" timeLoss="0.60" maxSpeed="1.29"/>
        <ride waitingTime="79.00" vehicle="bus.1" depart="84.00" arrival="115.00" arrivalPos="231.67" duration="31.00" routeLength="443.33" timeLoss="4.41"/>
        <walk depart="115.00" departPos="231.67" arrival="131.00" arrivalPos="250.00" duration="16.00" routeLength="18.33" timeLoss="2.80" maxSpeed="1.39"/>
    </personinfo>
    <personinfo id="p113" depart="0.00" type="DEFAULT_PEDTYPE">
        <walk depart="0.00" departPos="221.00" arrival="6.00" arrivalPos="226.67" duration="6.00" routeLength="5.67" timeLoss="2.28" maxSpeed="1.53"/>
        <ride waitingTime="78.00" vehicle="bus.1" depart="84.00" arrival="116.00" arrivalPos="231.67" duration="32.00" routeLength="443.33" timeLoss="4.41"/>
        <walk depart="116.00" departPos="231.67" arrival="132.00" arrivalPos="250.00" duration="16.00" routeLength="18.33" timeLoss="2.80" maxSpeed="1.39"/>
    </personinfo>
    <personinfo id="p114" depart="0.00" type="DEFAULT_PEDTYPE">
        <walk depart="0.00" departPos="221.00" arrival="6.00" arrivalPos="226.67" duration="6.00" routeLength="5.67" timeLoss="1.95" maxSpeed="1.40"/>
        <ride waitingTime="78.00" vehicle="bus.1" depart="84.00" arrival="115.00" arrivalPos="231.67" duration="31.00" routeLength="443.33" timeLoss="4.41"/>
        <walk depart="115.00" departPos="231.67" arrival="132.00" arrivalPos="250.00" duration="17.00" routeLength="18.33" timeLoss="3.80" maxSpeed="1.39"/>
    </personinfo>
    <personinfo id="p116" depart="0.00" type="DEFAULT_PEDTYPE">
        <walk depart="0.00" departPos="221.00" arrival="7.00" arrivalPos="226.67" duration="7.00" routeLength="5.67" timeLoss="2.57" maxSpeed="1.28"/>
        <ride waitingTime="77.00" vehicle="bus.1" depart="84.00" arrival="116.00" arrivalPos="231.67" duration="32.00" routeLength="443.33" timeLoss="4.41"/>
        <walk depart="116.00" departPos="231.67" arrival="132.00" arrivalPos="250.00" duration="16.00" routeLength="18.33" timeLoss="2.80" maxSpeed="1.39"/>
    </personinfo>
    <personinfo id="p118" depart="0.00" type="DEFAULT_PEDTYPE">
        <walk depart="0.00" departPos="221.00" arrival="8.00" arrivalPos="226.67" duration="8.00" routeLength="5.67" timeLoss="3.94" maxSpeed="1.39"/>
        <ride waitingTime="76.00" vehicle="bus.1" depart="84.00" arrival="117.00" arrivalPos="231.67" duration="33.00" routeLength="443.33" timeLoss="4.41"/>
        <walk depart="117.00" departPos="231.67" arrival="133.00" arrivalPos="250.00" duration="16.00" routeLength="18.33" timeLoss="2.80" maxSpeed="1.39"/>
    </personinfo>
    <personinfo id="p119" depart="0.00" type="DEFAULT_PEDTYPE">
        <walk depart="0.00" departPos="221.00" arrival="10.00" arrivalPos="226.67" duration="10.00" routeLength="5.67" timeLoss="5.88" maxSpeed="1.38"/>
        <ride waitingTime="74.00" vehicle="bus.1" depart="84.00" arrival="117.00" arrivalPos="231.67" duration="33.00" routeLength="443.33" timeLoss="4.41"/>
        <walk depart="117.00" departPos="231.67" arrival="133.00" arrivalPos="250.00" duration="16.00" routeLength="18.33" timeLoss="2.80" maxSpeed="1.39"/>
    </personinfo>
    <personinfo id="p1" depart="0.00" type="DEFAULT_PEDTYPE">
        <walk depart="0.00" departPos="221.00" arrival="5.00" arrivalPos="226.67" duration="5.00" routeLength="5.67" timeLoss="1.15" maxSpeed="1.47"/>
        <ride waitingTime="33.00" vehicle="bus.0" depart="38.00" arrival="119.00" arrivalPos="231.67" duration="81.00" routeLength="886.67" timeLoss="8.81"/>
        <walk depart="119.00" departPos="231.67" arrival="134.00" arrivalPos="250.00" duration="15.00" routeLength="18.33" timeLoss="1.80" maxSpeed="1.39"/>
    </personinfo>
    <personinfo id="p14" depart="0.00" type="DEFAULT_PEDTYPE">
        <walk depart="0.00" departPos="221.00" arrival="7.00" arrivalPos="226.67" duration="7.00" routeLength="5.67" timeLoss="3.36" maxSpeed="1.56"/>
        <ride waitingTime="81.00" vehicle="bus.0" depart="88.00" arrival="120.00" arrivalPos="231.67" duration="32.00" routeLength="443.34" timeLoss="4.41"/>
        <walk depart="120.00" departPos="231.67" arrival="135.00" arrivalPos="250.00" duration="15.00" routeLength="18.33" timeLoss="1.80" maxSpeed="1.39"/>
    </personinfo>
    <personinfo id="p15" depart="0.00" type="DEFAULT_PEDTYPE">
        <walk depart="0.00" departPos="221.00" arrival="7.00" arrivalPos="226.67" duration="7.00" routeLength="5.67" timeLoss="2.88" maxSpeed="1.38"/>
        <ride waitingTime="81.00" vehicle="bus.0" depart="88.00" arrival="120.00" arrivalPos="231.67" duration="32.00" routeLength="443.34" timeLoss="4.41"/>
        <walk depart="120.00" departPos="231.67" arrival="136.00" arrivalPos="250.00" duration="16.00" routeLength="18.33" timeLoss="2.80" maxSpeed="1.39"/>
    </personinfo>
    <personinfo id="p16" depart="0.00" type="DEFAULT_PEDTYPE">
        <walk depart="0.00" departPos="221.00" arrival="8.00" arrivalPos="226.67" duration="8.00" routeLength="5.67" timeLoss="3.60" maxSpeed="1.29"/>
        <ride waitingTime="80.00" vehicle="bus.0" depart="88.00" arrival="121.00" arrivalPos="231.67" duration="33.00" routeLength="443.34" timeLoss="4.41"/>
        <walk depart="121.00" departPos="231.67" arrival="136.00" arrivalPos="250.00" duration="15.00" routeLength="18.33" timeLoss="1.80" maxSpeed="1.39"/>
    </personinfo>
    <personinfo id="pStop2.0" depart="1.58" type="DEFAULT_PEDTYPE">
        <walk depart="2.00" departPos="200.00" arrival="21.00" arrivalPos="226.67" duration="19.00" routeLength="26.67" timeLoss="2.40" maxSpeed="1.61"/>
        <ride waitingTime="67.00" vehicle="bus.0" depart="88.00" arrival="121.00" arrivalPos="231.67" duration="33.00" routeLength="443.34" timeLoss="4.41"/>
        <walk depart="121.00" departPos="231.67" arrival="137.00" arrivalPos="250.00" duration="16.00" routeLength="18.33" timeLoss="2.80" maxSpeed="1.39"/>
    </personinfo>
    <personinfo id="p25" depart="0.00" type="DEFAULT_PEDTYPE">
        <walk depart="0.00" departPos="221.00" arrival="8.00" arrivalPos="226.67" duration="8.00" routeLength="5.67" timeLoss="3.06" maxSpeed="1.15"/>
        <ride waitingTime="26.00" vehicle="bus.5" depart="34.00" arrival="158.00" arrivalPos="231.67" duration="124.00" routeLength="1330.00" timeLoss="13.22"/>
        <walk depart="158.00" departPos="231.67" arrival="173.00" arrivalPos="250.00" duration="15.00" routeLength="18.33" timeLoss="1.80" maxSpeed="1.39"/>
    </personinfo>
    <personinfo id="p28" depart="0.00" type="DEFAULT_PEDTYPE">
        <walk depart="0.00" departPos="221.00" arrival="9.00" arrivalPos="226.67" duration="9.00" routeLength="5.67" timeLoss="4.70" maxSpeed="1.32"/>
        <ride waitingTime="25.00" vehicle="bus.5" depart="34.00" arrival="158.00" arrivalPos="231.67" duration="124.00" routeLength="1330.00" timeLoss="13.22"/>
        <walk depart="158.00" departPos="231.67" arrival="173.00" arrivalPos="250.00" duration="15.00" routeLength="18.33" timeLoss="1.80" maxSpeed="1.39"/>
    </personinfo>
    <personinfo id="p67" depart="0.00" type="DEFAULT_PEDTYPE">
        <walk depart="0.00" departPos="221.00" arrival="8.00" arrivalPos="226.67" duration="8.00" routeLength="5.67" timeLoss="3.50" maxSpeed="1.26"/>
        <ride waitingTime="26.00" vehicle="bus.3" depart="34.00" arrival="158.00" arrivalPos="231.67" duration="124.00" routeLength="1330.00" timeLoss="13.22"/>
        <walk depart="158.00" departPos="231.67" arrival="173.00" arrivalPos="250.00" duration="15.00" routeLength="18.33" timeLoss="1.80" maxSpeed="1.39"/>
    </personinfo>
    <personinfo id="p83" depart="0.00" type="DEFAULT_PEDTYPE">
        <walk depart="0.00" departPos="221.00" arrival="7.00" arrivalPos="226.67" duration="7.00" routeLength="5.67" timeLoss="2.99" maxSpeed="1.41"/>
        <ride waitingTime="27.00" vehicle="bus.2" depart="34.00" arrival="159.00" arrivalPos="231.67" duration="125.00" routeLength="1330.00" timeLoss="13.22"/>
        <walk depart="159.00" departPos="231.67" arrival="174.00" arrivalPos="250.00" duration="15.00" routeLength="18.33" timeLoss="1.80" maxSpeed="1.39"/>
    </personinfo>
    <personinfo id="p32" depart="0.00" type="DEFAULT_PEDTYPE">
        <walk depart="0.00" departPos="221.00" arrival="5.00" arrivalPos="226.67" duration="5.00" routeLength="5.67" timeLoss="1.46" maxSpeed="1.60"/>
        <ride waitingTime="75.00" vehicle="bus.5" depart="80.00" arrival="159.00" arrivalPos="231.67" duration="79.00" routeLength="886.67" timeLoss="8.81"/>
        <walk depart="159.00" departPos="231.67" arrival="174.00" arrivalPos="250.00" duration="15.00" routeLength="18.33" timeLoss="1.80" maxSpeed="1.39"/>
    </personinfo>
    <personinfo id="p42" depart="0.00" type="DEFAULT_PEDTYPE">
        <walk depart="0.00" departPos="221.00" arrival="6.00" arrivalPos="226.67" duration="6.00" routeLength="5.67" timeLoss="1.74" maxSpeed="1.33"/>
        <ride waitingTime="28.00" vehicle="bus.4" depart="34.00" arrival="159.00" arrivalPos="231.67" duration="125.00" routeLength="1330.00" timeLoss="13.22"/>
        <walk depart="159.00" departPos="231.67" arrival="174.00" arrivalPos="250.00" duration="15.00" routeLength="18.33" timeLoss="1.80" maxSpeed="1.39"/>
    </personinfo>
    <personinfo id="p70" depart="0.00" type="DEFAULT_PEDTYPE">
        <walk depart="0.00" departPos="221.00" arrival="10.00" arrivalPos="226.67" duration="10.00" routeLength="5.67" timeLoss="6.01" maxSpeed="1.42"/>
        <ride waitingTime="24.00" vehicle="bus.3" depart="34.00" arrival="158.00" arrivalPos="231.67" duration="124.00" routeLength="1330.00" timeLoss="13.22"/>
        <walk depart="158.00" departPos="231.67" arrival="174.00" arrivalPos="250.00" duration="16.00" routeLength="18.33" timeLoss="2.80" maxSpeed="1.39"/>
    </personinfo>
    <personinfo id="p87" depart="0.00" type="DEFAULT_PEDTYPE">
        <walk depart="0.00" departPos="221.00" arrival="9.00" arrivalPos="226.67" duration="9.00" routeLength="5.67" timeLoss="4.93" maxSpeed="1.39"/>
        <ride waitingTime="25.00" vehicle="bus.2" depart="34.00" arrival="159.00" arrivalPos="231.67" duration="125.00" routeLength="1330.00" timeLoss="13.22"/>
        <walk depart="159.00" departPos="231.67" arrival="175.00" arrivalPos="250.00" duration="16.00" routeLength="18.33" timeLoss="2.80" maxSpeed="1.39"/>
    </personinfo>
    <personinfo id="p92" depart="0.00" type="DEFAULT_PEDTYPE">
        <walk depart="0.00" departPos="221.00" arrival="7.00" arrivalPos="226.67" duration="7.00" routeLength="5.67" timeLoss="2.42" maxSpeed="1.24"/>
        <ride waitingTime="73.00" vehicle="bus.2" depart="80.00" arrival="160.00" arrivalPos="231.67" duration="80.00" routeLength="886.67" timeLoss="8.81"/>
        <walk depart="160.00" departPos="231.67" arrival="175.00" arrivalPos="250.00" duration="15.00" routeLength="18.33" timeLoss="1.80" maxSpeed="1.39"/>
    </personinfo>
    <personinfo id="p39" depart="0.00" type="DEFAULT_PEDTYPE">
        <walk depart="0.00" departPos="221.00" arrival="9.00" arrivalPos="226.67" duration="9.00" routeLength="5.67" timeLoss="5.30" maxSpeed="1.53"/>
        <ride waitingTime="71.00" vehicle="bus.5" depart="80.00" arrival="159.00" arrivalPos="231.67" duration="79.00" routeLength="886.67" timeLoss="8.81"/>
        <walk depart="159.00" departPos="231.67" arrival="175.00" arrivalPos="250.00" duration="16.00" routeLength="18.33" timeLoss="2.80" maxSpeed="1.39"/>
    </personinfo>
    <personinfo id="p47" depart="0.00" type="DEFAULT_PEDTYPE">
        <walk depart="0.00" departPos="221.00" arrival="7.00" arrivalPos="226.67" duration="7.00" routeLength="5.67" timeLoss="2.91" maxSpeed="1.39"/>
        <ride waitingTime="27.00" vehicle="bus.4" depart="34.00" arrival="160.00" arrivalPos="231.67" duration="126.00" routeLength="1330.00" timeLoss="13.22"/>
        <walk depart="160.00" departPos="231.67" arrival="175.00" arrivalPos="250.00" duration="15.00" routeLength="18.33" timeLoss="1.80" maxSpeed="1.39"/>
    </personinfo>
    <personinfo id="p69" depart="0.00" type="DEFAULT_PEDTYPE">
        <walk depart="0.00" departPos="221.00" arrival="10.00" arrivalPos="226.67" duration="10.00" routeLength="5.67" timeLoss="6.08" maxSpeed="1.44"/>
        <ride waitingTime="24.00" vehicle="bus.3" depart="34.00" arrival="159.00" arrivalPos="231.67" duration="125.00" routeLength="1330.00" timeLoss="13.22"/>
        <walk depart="159.00" departPos="231.67" arrival="175.00" arrivalPos="250.00" duration="16.00" routeLength="18.33" timeLoss="2.80" maxSpeed="1.39"/>
    </personinfo>
    <personinfo id="p98" depart="0.00" type="DEFAULT_PEDTYPE">
        <walk depart="0.00" departPos="221.00" arrival="10.00" arrivalPos="226.67" duration="10.00" routeLength="5.67" timeLoss="5.50" maxSpeed="1.26"/>
        <ride waitingTime="70.00" vehicle="bus.2" depart="80.00" arrival="160.00" arrivalPos="231.67" duration="80.00" routeLength="886.67" timeLoss="8.81"/>
        <walk depart="160.00" departPos="231.67" arrival="176.00" arrivalPos="250.00" duration="16.00" routeLength="18.33" timeLoss="2.80" maxSpeed="1.39"/>
    </personinfo>
    <personinfo id="pStop5.0" depart="101.98" type="DEFAULT_PEDTYPE">
        <walk depart="102.00" departPos="200.00" arrival="124.00" arrivalPos="226.67" duration="22.00" routeLength="26.67" timeLoss="2.49" maxSpeed="1.37"/>
        <ride waitingTime="2.00" vehicle="bus.5" depart="126.00" arrival="160.00" arrivalPos="231.67" duration="34.00" routeLength="443.34" timeLoss="4.41"/>
        <walk depart="160.00" departPos="231.67" arrival="176.00" arrivalPos="250.00" duration="16.00" routeLength="18.33" timeLoss="2.80" maxSpeed="1.39"/>
    </personinfo>
    <personinfo id="p49" depart="0.00" type="DEFAULT_PEDTYPE">
        <walk depart="0.00" departPos="221.00" arrival="8.00" arrivalPos="226.67" duration="8.00" routeLength="5.67" timeLoss="3.35" maxSpeed="1.22"/>
        <ride waitingTime="26.00" vehicle="bus.4" depart="34.00" arrival="160.00" arrivalPos="231.67" duration="126.00" routeLength="1330.00" timeLoss="13.22"/>
        <walk depart="160.00" departPos="231.67" arrival="176.00" arrivalPos="250.00" duration="16.00" routeLength="18.33" timeLoss="2.80" maxSpeed="1.39"/>
    </personinfo>
    <personinfo id="p76" depart="0.00" type="DEFAULT_PEDTYPE">
        <walk depart="0.00" departPos="221.00" arrival="8.00" arrivalPos="226.67" duration="8.00" routeLength="5.67" timeLoss="3.86" maxSpeed="1.37"/>
        <ride waitingTime="72.00" vehicle="bus.3" depart="80.00" arrival="159.00" arrivalPos="231.67" duration="79.00" routeLength="886.67" timeLoss="8.81"/>
        <walk depart="159.00" departPos="231.67" arrival="176.00" arrivalPos="250.00" duration="17.00" routeLength="18.33" timeLoss="3.80" maxSpeed="1.39"/>
    </personinfo>
    <personinfo id="p50" depart="0.00" type="DEFAULT_PEDTYPE">
        <walk depart="0.00" departPos="221.00" arrival="10.00" arrivalPos="226.67" duration="10.00" routeLength="5.67" timeLoss="5.20" maxSpeed="1.18"/>
        <ride waitingTime="24.00" vehicle="bus.4" depart="34.00" arrival="161.00" arrivalPos="231.67" duration="127.00" routeLength="1330.00" timeLoss="13.22"/>
        <walk depart="161.00" departPos="231.67" arrival="177.00" arrivalPos="250.00" duration="16.00" routeLength="18.33" timeLoss="2.80" maxSpeed="1.39"/>
    </personinfo>
    <personinfo id="p102" depart="0.00" type="DEFAULT_PEDTYPE">
        <walk depart="0.00" departPos="221.00" arrival="6.00" arrivalPos="226.67" duration="6.00" routeLength="5.67" timeLoss="1.73" maxSpeed="1.33"/>
        <ride waitingTime="28.00" vehicle="bus.1" depart="34.00" arrival="165.00" arrivalPos="231.67" duration="131.00" routeLength="1330.00" timeLoss="13.22"/>
        <walk depart="165.00" departPos="231.67" arrival="180.00" arrivalPos="250.00" duration="15.00" routeLength="18.33" timeLoss="1.80" maxSpeed="1.39"/>
    </personinfo>
    <personinfo id="p105" depart="0.00" type="DEFAULT_PEDTYPE">