<?xml version="1.0" encoding="UTF-8"?>

<!-- generated on 2022-11-07 18:09:14 by Eclipse SUMO sumo Version 1.14.1
<configuration xmlns:xsi="http://www.w3.org/2001/XMLSchema-instance" xsi:noNamespaceSchemaLocation="http://sumo.dlr.de/xsd/sumoConfiguration.xsd">

    <input>
        <net-file value="demo.net.xml"/>
        <additional-files value="demo.add.xml"/>
    </input>

    <output>
        <tripinfo-output value="tripinfo.xml"/>
    </output>

    <processing>
        <no-internal-links value="false"/>
    </processing>

    <report>
        <no-warnings value="true"/>
    </report>

    <traci_server>
        <remote-port value="54236"/>
    </traci_server>

</configuration>
-->

<tripinfos xmlns:xsi="http://www.w3.org/2001/XMLSchema-instance" xsi:noNamespaceSchemaLocation="http://sumo.dlr.de/xsd/tripinfo_file.xsd">
    <personinfo id="persons.0" depart="0.00" type="DEFAULT_PEDTYPE">
        <walk depart="0.00" departPos="0.00" arrival="14.00" arrivalPos="17.50" duration="14.00" routeLength="17.50" timeLoss="2.11" maxSpeed="1.47"/>
        <ride waitingTime="6.00" vehicle="bus.0" depart="20.00" arrival="31.00" arrivalPos="20.00" duration="11.00" routeLength="107.07" timeLoss="3.29"/>
        <walk depart="31.00" departPos="20.00" arrival="39.00" arrivalPos="30.00" duration="8.00" routeLength="10.00" timeLoss="1.21" maxSpeed="1.47"/>
    </personinfo>
    <personinfo id="persons4.1" depart="20.00" type="DEFAULT_PEDTYPE">
        <walk depart="20.00" departPos="0.00" arrival="33.00" arrivalPos="17.50" duration="13.00" routeLength="17.50" timeLoss="1.46" maxSpeed="1.52"/>
        <ride waitingTime="7.00" vehicle="bus.1" depart="40.00" arrival="56.00" arrivalPos="20.00" duration="16.00" routeLength="148.44" timeLoss="4.31"/>
        <walk depart="56.00" departPos="20.00" arrival="64.00" arrivalPos="30.00" duration="8.00" routeLength="10.00" timeLoss="1.40" maxSpeed="1.52"/>
    </personinfo>
    <personinfo id="persons2.0" depart="0.00" type="DEFAULT_PEDTYPE">
        <walk depart="0.00" departPos="0.00" arrival="15.00" arrivalPos="17.50" duration="15.00" routeLength="17.50" timeLoss="2.11" maxSpeed="1.36"/>
        <ride waitingTime="31.00" vehicle="bus.0" depart="46.00" arrival="59.00" arrivalPos="20.00" duration="13.00" routeLength="122.63" timeLoss="4.17"/>
        <walk depart="59.00" departPos="20.00" arrival="68.00" arrivalPos="30.00" duration="9.00" routeLength="10.00" timeLoss="1.63" maxSpeed="1.36"/>
    </personinfo>
    <personinfo id="persons2.1" depart="15.00" type="DEFAULT_PEDTYPE">
        <walk depart="15.00" departPos="0.00" arrival="29.00" arrivalPos="17.50" duration="14.00" routeLength="17.50" timeLoss="1.79" maxSpeed="1.43"/>
        <ride waitingTime="17.00" vehicle="bus.0" depart="46.00" arrival="60.00" arrivalPos="20.00" duration="14.00" routeLength="122.63" timeLoss="4.17"/>
        <walk depart="60.00" departPos="20.00" arrival="68.00" arrivalPos="30.00" duration="8.00" routeLength="10.00" timeLoss="1.03" maxSpeed="1.43"/>
    </personinfo>
    <personinfo id="persons2.2" depart="30.00" type="DEFAULT_PEDTYPE">
        <walk depart="30.00" departPos="0.00" arrival="44.00" arrivalPos="17.50" duration="14.00" routeLength="17.50" timeLoss="1.63" maxSpeed="1.41"/>
        <ride waitingTime="2.00" vehicle="bus.0" depart="46.00" arrival="60.00" arrivalPos="20.00" duration="14.00" routeLength="122.63" timeLoss="4.17"/>
        <walk depart="60.00" departPos="20.00" arrival="69.00" arrivalPos="30.00" duration="9.00" routeLength="10.00" timeLoss="1.93" maxSpeed="1.41"/>
    </personinfo>
    <personinfo id="persons3.0" depart="0.00" type="DEFAULT_PEDTYPE">
        <walk depart="0.00" departPos="0.00" arrival="13.00" arrivalPos="17.50" duration="13.00" routeLength="17.50" timeLoss="1.61" maxSpeed="1.54"/>
        <ride waitingTime="57.00" vehicle="bus.1" depart="70.00" arrival="80.00" arrivalPos="20.00" duration="10.00" routeLength="81.26" timeLoss="4.15"/>
        <walk depart="80.00" departPos="20.00" arrival="88.00" arrivalPos="30.00" duration="8.00" routeLength="10.00" timeLoss="1.49" maxSpeed="1.54"/>
    </personinfo>
    <personinfo id="persons3.2" depart="30.00" type="DEFAULT_PEDTYPE">
        <walk depart="30.00" departPos="0.00" arrival="46.00" arrivalPos="17.50" duration="16.00" routeLength="17.50" timeLoss="2.53" maxSpeed="1.30"/>
        <ride waitingTime="24.00" vehicle="bus.1" depart="70.00" arrival="80.00" arrivalPos="20.00" duration="10.00" routeLength="81.26" timeLoss="4.15"/>
        <walk depart="80.00" departPos="20.00" arrival="90.00" arrivalPos="30.00" duration="10.00" routeLength="10.00" timeLoss="2.30" maxSpeed="1.30"/>
    </personinfo>
    <personinfo id="persons3.1" depart="15.00" type="DEFAULT_PEDTYPE">
        <walk depart="15.00" departPos="0.00" arrival="33.00" arrivalPos="17.50" duration="18.00" routeLength="17.50" timeLoss="2.24" maxSpeed="1.11"/>
        <ride waitingTime="37.00" vehicle="bus.1" depart="70.00" arrival="80.00" arrivalPos="20.00" duration="10.00" routeLength="81.26" timeLoss="4.15"/>
        <walk depart="80.00" departPos="20.00" arrival="91.00" arrivalPos="30.00" duration="11.00" routeLength="10.00" timeLoss="1.99" maxSpeed="1.11"/>
    </personinfo>
    <personinfo id="persons3.3" depart="45.00" type="DEFAULT_PEDTYPE">
        <walk depart="45.00" departPos="0.00" arrival="59.00" arrivalPos="17.50" duration="14.00" routeLength="17.50" timeLoss="1.66" maxSpeed="1.42"/>
        <ride waitingTime="11.00" vehicle="bus.1" depart="70.00" arrival="81.00" arrivalPos="20.00" duration="11.00" routeLength="81.26" timeLoss="4.15"/>
        <walk depart="81.00" departPos="20.00" arrival="91.00" arrivalPos="30.00" duration="10.00" routeLength="10.00" timeLoss="2.95" maxSpeed="1.42"/>
    </personinfo>
    <personinfo id="persons.1" depart="25.00" type="DEFAULT_PEDTYPE">
        <walk depart="25.00" departPos="0.00" arrival="41.00" arrivalPos="17.50" duration="16.00" routeLength="17.50" timeLoss="2.57" maxSpeed="1.30"/>
        <ride waitingTime="33.00" vehicle="bus.0" depart="74.00" arrival="85.00" arrivalPos="20.00" duration="11.00" routeLength="107.07" timeLoss="3.29"/>
        <walk depart="85.00" departPos="20.00" arrival="94.00" arrivalPos="30.00" duration="9.00" routeLength="10.00" timeLoss="1.33" maxSpeed="1.30"/>
    </personinfo>
    <personinfo id="persons.2" depart="50.00" type="DEFAULT_PEDTYPE">
        <walk depart="50.00" departPos="0.00" arrival="64.00" arrivalPos="17.50" duration="14.00" routeLength="17.50" timeLoss="1.53" maxSpeed="1.40"/>
        <ride waitingTime="10.00" vehicle="bus.0" depart="74.00" arrival="86.00" arrivalPos="20.00" duration="12.00" routeLength="107.07" timeLoss="3.29"/>
        <walk depart="86.00" departPos="20.00" arrival="95.00" arrivalPos="30.00" duration="9.00" routeLength="10.00" timeLoss="1.87" maxSpeed="1.40"/>
    </personinfo>
    <personinfo id="persons.3" depart="75.00" type="DEFAULT_PEDTYPE">
        <walk depart="75.00" departPos="0.00" arrival="88.00" arrivalPos="17.50" duration="13.00" routeLength="17.50" timeLoss="1.36" maxSpeed="1.50"/>
        <ride waitingTime="7.00" vehicle="bus.1" depart="95.00" arrival="106.00" arrivalPos="20.00" duration="11.00" routeLength="107.07" timeLoss="3.29"/>
        <walk depart="106.00" departPos="20.00" arrival="114.00" arrivalPos="30.00" duration="8.00" routeLength="10.00" timeLoss="1.35" maxSpeed="1.50"/>
    </personinfo>
    <personinfo id="persons2.3" depart="45.00" type="DEFAULT_PEDTYPE">
        <walk depart="45.00" departPos="0.00" arrival="58.00" arrivalPos="17.50" duration="13.00" routeLength="17.50" timeLoss="1.44" maxSpeed="1.51"/>
        <ride waitingTime="42.00" vehicle="bus.0" depart="100.00" arrival="113.00" arrivalPos="20.00" duration="13.00" routeLength="122.63" timeLoss="4.17"/>
        <walk depart="113.00" departPos="20.00" arrival="121.00" arrivalPos="30.00" duration="8.00" routeLength="10.00" timeLoss="1.39" maxSpeed="1.51"/>
    </personinfo>
    <personinfo id="persons2.4" depart="60.00" type="DEFAULT_PEDTYPE">
        <walk depart="60.00" departPos="0.00" arrival="73.00" arrivalPos="17.50" duration="13.00" routeLength="17.50" timeLoss="1.54" maxSpeed="1.53"/>
        <ride waitingTime="27.00" vehicle="bus.0" depart="100.00" arrival="113.00" arrivalPos="20.00" duration="13.00" routeLength="122.63" timeLoss="4.17"/>
        <walk depart="113.00" departPos="20.00" arrival="121.00" arrivalPos="30.00" duration="8.00" routeLength="10.00" timeLoss="1.45" maxSpeed="1.53"/>
    </personinfo>
    <personinfo id="persons2.5" depart="75.00" type="DEFAULT_PEDTYPE">
        <walk depart="75.00" departPos="0.00" arrival="90.00" arrivalPos="17.50" duration="15.00" routeLength="17.50" timeLoss="1.78" maxSpeed="1.32"/>
        <ride waitingTime="10.00" vehicle="bus.0" depart="100.00" arrival="113.00" arrivalPos="20.00" duration="13.00" routeLength="122.63" timeLoss="4.17"/>
        <walk depart="113.00" departPos="20.00" arrival="123.00" arrivalPos="30.00" duration="10.00" routeLength="10.00" timeLoss="2.45" maxSpeed="1.32"/>
    </personinfo>
    <personinfo id="persons4.4" depart="80.00" type="DEFAULT_PEDTYPE">
        <walk depart="80.00" departPos="0.00" arrival="94.00" arrivalPos="17.50" duration="14.00" routeLength="17.50" timeLoss="1.25" maxSpeed="1.37"/>
        <ride waitingTime="1.00" vehicle="bus.1" depart="95.00" arrival="129.00" arrivalPos="20.00" duration="34.00" routeLength="148.44" timeLoss="7.31"/>
        <walk depart="129.00" departPos="20.00" arrival="138.00" arrivalPos="30.00" duration="9.00" routeLength="10.00" timeLoss="1.71" maxSpeed="1.37"/>
    </personinfo>
    <personinfo id="persons.4" depart="100.00" type="DEFAULT_PEDTYPE">
        <walk depart="100.00" departPos="0.00" arrival="114.00" arrivalPos="17.50" duration="14.00" routeLength="17.50" timeLoss="1.77" maxSpeed="1.43"/>
        <ride waitingTime="14.00" vehicle="bus.0" depart="128.00" arrival="139.00" arrivalPos="20.00" duration="11.00" routeLength="107.07" timeLoss="3.29"/>
        <walk depart="139.00" departPos="20.00" arrival="147.00" arrivalPos="30.00" duration="8.00" routeLength="10.00" timeLoss="1.01" maxSpeed="1.43"/>
    </personinfo>
    <personinfo id="persons2.6" depart="90.00" type="DEFAULT_PEDTYPE">
        <walk depart="90.00" departPos="0.00" arrival="105.00" arrivalPos="17.50" duration="15.00" routeLength="17.50" timeLoss="1.87" maxSpeed="1.33"/>
        <ride waitingTime="16.00" vehicle="bus.1" depart="121.00" arrival="153.00" arrivalPos="20.00" duration="32.00" routeLength="122.63" timeLoss="8.17"/>
        <walk depart="153.00" departPos="20.00" arrival="162.00" arrivalPos="30.00" duration="9.00" routeLength="10.00" timeLoss="1.50" maxSpeed="1.33"/>
    </personinfo>
    <personinfo id="persons3.4" depart="60.00" type="DEFAULT_PEDTYPE">
        <walk depart="60.00" departPos="0.00" arrival="72.00" arrivalPos="17.50" duration="12.00" routeLength="17.50" timeLoss="1.43" maxSpeed="1.66"/>
        <ride waitingTime="71.00" vehicle="bus.1" depart="143.00" arrival="154.00" arrivalPos="20.00" duration="11.00" routeLength="81.26" timeLoss="4.15"/>
        <walk depart="154.00" departPos="20.00" arrival="162.00" arrivalPos="30.00" duration="8.00" routeLength="10.00" timeLoss="1.96" maxSpeed="1.66"/>
    </personinfo>
    <personinfo id="persons3.5" depart="75.00" type="DEFAULT_PEDTYPE">
        <walk depart="75.00" departPos="0.00" arrival="89.00" arrivalPos="17.50" duration="14.00" routeLength="17.50" timeLoss="2.15" maxSpeed="1.48"/>
        <ride waitingTime="54.00" vehicle="bus.1" depart="143.00" arrival="154.00" arrivalPos="20.00" duration="11.00" routeLength="81.26" timeLoss="4.15"/>
        <walk depart="154.00" departPos="20.00" arrival="163.00" arrivalPos="30.00" duration="9.00" routeLength="10.00" timeLoss="2.23" maxSpeed="1.48"/>
    </personinfo>
    <personinfo id="persons3.6" depart="90.00" type="DEFAULT_PEDTYPE">
        <walk depart="90.00" departPos="0.00" arrival="105.00" arrivalPos="17.50" duration="15.00" routeLength="17.50" timeLoss="2.39" maxSpeed="1.39"/>
        <ride waitingTime="38.00" vehicle="bus.1" depart="143.00" arrival="155.00" arrivalPos="20.00" duration="12.00" routeLength="81.26" timeLoss="4.15"/>
        <walk depart="155.00" departPos="20.00" arrival="164.00" arrivalPos="30.00" duration="9.00" routeLength="10.00" timeLoss="1.80" maxSpeed="1.39"/>
    </personinfo>
    <personinfo id="persons3.7" depart="105.00" type="DEFAULT_PEDTYPE">
        <walk depart="105.00" departPos="0.00" arrival="119.00" arrivalPos="17.50" duration="14.00" routeLength="17.50" timeLoss="1.38" maxSpeed="1.39"/>
        <ride waitingTime="24.00" vehicle="bus.1" depart="143.00" arrival="156.00" arrivalPos="20.00" duration="13.00" routeLength="81.26" timeLoss="4.15"/>
        <walk depart="156.00" departPos="20.00" arrival="164.00" arrivalPos="30.00" duration="8.00" routeLength="10.00" timeLoss="0.79" maxSpeed="1.39"/>
    </personinfo>
    <personinfo id="persons3.8" depart="120.00" type="DEFAULT_PEDTYPE">
        <walk depart="120.00" departPos="0.00" arrival="136.00" arrivalPos="17.50" duration="16.00" routeLength="17.50" timeLoss="1.67" maxSpeed="1.22"/>
        <ride waitingTime="7.00" vehicle="bus.1" depart="143.00" arrival="156.00" arrivalPos="20.00" duration="13.00" routeLength="81.26" timeLoss="4.15"/>
        <walk depart="156.00" departPos="20.00" arrival="166.00" arrivalPos="30.00" duration="10.00" routeLength="10.00" timeLoss="1.81" maxSpeed="1.22"/>
    </personinfo>
    <personinfo id="persons4.0" depart="0.00" type="DEFAULT_PEDTYPE">
        <walk depart="0.00" departPos="0.00" arrival="16.00" arrivalPos="17.50" duration="16.00" routeLength="17.50" timeLoss="2.31" maxSpeed="1.28"/>
        <ride waitingTime="4.00" vehicle="bus.0" depart="20.00" arrival="161.00" arrivalPos="20.00" duration="141.00" routeLength="607.84" timeLoss="22.24"/>
        <walk depart="161.00" departPos="20.00" arrival="170.00" arrivalPos="30.00" duration="9.00" routeLength="10.00" timeLoss="1.18" maxSpeed="1.28"/>
    </personinfo>
    <personinfo id="persons4.3" depart="60.00" type="DEFAULT_PEDTYPE">
        <walk depart="60.00" departPos="0.00" arrival="73.00" arrivalPos="17.50" duration="13.00" routeLength="17.50" timeLoss="1.63" maxSpeed="1.54"/>
        <ride waitingTime="1.00" vehicle="bus.0" depart="74.00" arrival="162.00" arrivalPos="20.00" duration="88.00" routeLength="378.14" timeLoss="14.78"/>
        <walk depart="162.00" departPos="20.00" arrival="171.00" arrivalPos="30.00" duration="9.00" routeLength="10.00" timeLoss="2.50" maxSpeed="1.54"/>
    </personinfo>
    <personinfo id="persons4.2" depart="40.00" type="DEFAULT_PEDTYPE">
        <walk depart="40.00" departPos="0.00" arrival="54.00" arrivalPos="17.50" duration="14.00" routeLength="17.50" timeLoss="1.35" maxSpeed="1.38"/>
        <ride waitingTime="20.00" vehicle="bus.0" depart="74.00" arrival="161.00" arrivalPos="20.00" duration="87.00" routeLength="378.14" timeLoss="14.78"/>
        <walk depart="161.00" departPos="20.00" arrival="171.00" arrivalPos="30.00" duration="10.00" routeLength="10.00" timeLoss="2.77" maxSpeed="1.38"/>
    </personinfo>
    <personinfo id="persons4.5" depart="100.00" type="DEFAULT_PEDTYPE">
        <walk depart="100.00" departPos="0.00" arrival="115.00" arrivalPos="17.50" duration="15.00" routeLength="17.50" timeLoss="2.54" maxSpeed="1.40"/>
        <ride waitingTime="13.00" vehicle="bus.0" depart="128.00" arrival="162.00" arrivalPos="20.00" duration="34.00" routeLength="148.44" timeLoss="7.31"/>
        <walk depart="162.00" departPos="20.00" arrival="171.00" arrivalPos="30.00" duration="9.00" routeLength="10.00" timeLoss="1.88" maxSpeed="1.40"/>
    </personinfo>
    <personinfo id="persons.5" depart="125.00" type="DEFAULT_PEDTYPE">
        <walk depart="125.00" departPos="0.00" arrival="142.00" arrivalPos="17.50" duration="17.00" routeLength="17.50" timeLoss="1.84" maxSpeed="1.15"/>
        <ride waitingTime="26.00" vehicle="bus.1" depart="168.00" arrival="179.00" arrivalPos="20.00" duration="11.00" routeLength="107.07" timeLoss="3.29"/>
        <walk depart="179.00" departPos="20.00" arrival="189.00" arrivalPos="30.00" duration="10.00" routeLength="10.00" timeLoss="1.34" maxSpeed="1.15"/>
    </personinfo>
    <personinfo id="persons.6" depart="150.00" type="DEFAULT_PEDTYPE">
        <walk depart="150.00" departPos="0.00" arrival="164.00" arrivalPos="17.50" duration="14.00" routeLength="17.50" timeLoss="1.95" maxSpeed="1.45"/>
        <ride waitingTime="4.00" vehicle="bus.1" depart="168.00" arrival="179.00" arrivalPos="20.00" duration="11.00" routeLength="107.07" timeLoss="3.29"/>
        <walk depart="179.00" departPos="20.00" arrival="189.00" arrivalPos="30.00" duration="10.00" routeLength="10.00" timeLoss="3.12" maxSpeed="1.45"/>
    </personinfo>
    <personinfo id="persons3.9" depart="135.00" type="DEFAULT_PEDTYPE">
        <walk depart="135.00" departPos="0.00" arrival="147.00" arrivalPos="17.50" duration="12.00" routeLength="17.50" timeLoss="1.21" maxSpeed="1.62"/>
        <ride waitingTime="29.00" vehicle="bus.0" depart="176.00" arrival="187.00" arrivalPos="20.00" duration="11.00" routeLength="81.26" timeLoss="4.15"/>
        <walk depart="187.00" departPos="20.00" arrival="195.00" arrivalPos="30.00" duration="8.00" routeLength="10.00" timeLoss="1.84" maxSpeed="1.62"/>
    </personinfo>
    <personinfo id="persons2.7" depart="105.00" type="DEFAULT_PEDTYPE">
        <walk depart="105.00" departPos="0.00" arrival="122.00" arrivalPos="17.50" duration="17.00" routeLength="17.50" timeLoss="2.35" maxSpeed="1.19"/>
        <ride waitingTime="32.00" vehicle="bus.0" depart="154.00" arrival="186.00" arrivalPos="20.00" duration="32.00" routeLength="122.63" timeLoss="8.17"/>
        <walk depart="186.00" departPos="20.00" arrival="195.00" arrivalPos="30.00" duration="9.00" routeLength="10.00" timeLoss="0.63" maxSpeed="1.19"/>
    </personinfo>
    <personinfo id="persons2.8" depart="120.00" type="DEFAULT_PEDTYPE">
        <walk depart="120.00" departPos="0.00" arrival="134.00" arrivalPos="17.50" duration="14.00" routeLength="17.50" timeLoss="1.58" maxSpeed="1.41"/>
        <ride waitingTime="20.00" vehicle="bus.0" depart="154.00" arrival="186.00" arrivalPos="20.00" duration="32.00" routeLength="122.63" timeLoss="8.17"/>
        <walk depart="186.00" departPos="20.00" arrival="196.00" arrivalPos="30.00" duration="10.00" routeLength="10.00" timeLoss="2.90" maxSpeed="1.41"/>
    </personinfo>
    <personinfo id="persons2.9" depart="135.00" type="DEFAULT_PEDTYPE">
        <walk depart="135.00" departPos="0.00" arrival="150.00" arrivalPos="17.50" duration="15.00" routeLength="17.50" timeLoss="2.31" maxSpeed="1.38"/>
        <ride waitingTime="4.00" vehicle="bus.0" depart="154.00" arrival="187.00" arrivalPos="20.00" duration="33.00" routeLength="122.63" timeLoss="8.17"/>
        <walk depart="187.00" departPos="20.00" arrival="196.00" arrivalPos="30.00" duration="9.00" routeLength="10.00" timeLoss="1.75" maxSpeed="1.38"/>
    </personinfo>
    <personinfo id="persons3.10" depart="150.00" type="DEFAULT_PEDTYPE">
        <walk depart="150.00" departPos="0.00" arrival="165.00" arrivalPos="17.50" duration="15.00" routeLength="17.50" timeLoss="1.60" maxSpeed="1.31"/>
        <ride waitingTime="11.00" vehicle="bus.0" depart="176.00" arrival="188.00" arrivalPos="20.00" duration="12.00" routeLength="81.26" timeLoss="4.15"/>
        <walk depart="188.00" departPos="20.00" arrival="197.00" arrivalPos="30.00" duration="9.00" routeLength="10.00" timeLoss="1.34" maxSpeed="1.31"/>
    </personinfo>
    <personinfo id="persons4.6" depart="120.00" type="DEFAULT_PEDTYPE">
        <walk depart="120.00" departPos="0.00" arrival="134.00" arrivalPos="17.50" duration="14.00" routeLength="17.50" timeLoss="1.67" maxSpeed="1.42"/>
        <ride waitingTime="34.00" vehicle="bus.1" depart="168.00" arrival="201.00" arrivalPos="20.00" duration="33.00" routeLength="148.44" timeLoss="7.31"/>
        <walk depart="201.00" departPos="20.00" arrival="209.00" arrivalPos="30.00" duration="8.00" routeLength="10.00" timeLoss="0.96" maxSpeed="1.42"/>
    </personinfo>
    <personinfo id="persons4.7" depart="140.00" type="DEFAULT_PEDTYPE">
        <walk depart="140.00" departPos="0.00" arrival="155.00" arrivalPos="17.50" duration="15.00" routeLength="17.50" timeLoss="1.82" maxSpeed="1.33"/>
        <ride waitingTime="13.00" vehicle="bus.1" depart="168.00" arrival="202.00" arrivalPos="20.00" duration="34.00" routeLength="148.44" timeLoss="7.31"/>
        <walk depart="202.00" departPos="20.00" arrival="211.00" arrivalPos="30.00" duration="9.00" routeLength="10.00" timeLoss="1.47" maxSpeed="1.33"/>
    </personinfo>
    <personinfo id="persons.7" depart="175.00" type="DEFAULT_PEDTYPE">
        <walk depart="175.00" departPos="0.00" arrival="191.00" arrivalPos="17.50" duration="16.00" routeLength="17.50" timeLoss="1.78" maxSpeed="1.23"/>
        <ride waitingTime="10.00" vehicle="bus.0" depart="201.00" arrival="212.00" arrivalPos="20.00" duration="11.00" routeLength="107.07" timeLoss="3.29"/>
        <walk depart="212.00" departPos="20.00" arrival="222.00" arrivalPos="30.00" duration="10.00" routeLength="10.00" timeLoss="1.87" maxSpeed="1.23"/>
    </personinfo>
    <personinfo id="persons2.10" depart="150.00" type="DEFAULT_PEDTYPE">
        <walk depart="150.00" departPos="0.00" arrival="163.00" arrivalPos="17.50" duration="13.00" routeLength="17.50" timeLoss="1.59" maxSpeed="1.53"/>
        <ride waitingTime="31.00" vehicle="bus.1" depart="194.00" arrival="226.00" arrivalPos="20.00" duration="32.00" routeLength="122.63" timeLoss="8.17"/>
        <walk depart="226.00" departPos="20.00" arrival="233.00" arrivalPos="30.00" duration="7.00" routeLength="10.00" timeLoss="0.48" maxSpeed="1.53"/>
    </personinfo>
    <personinfo id="persons2.11" depart="165.00" type="DEFAULT_PEDTYPE">
        <walk depart="165.00" departPos="0.00" arrival="180.00" arrivalPos="17.50" duration="15.00" routeLength="17.50" timeLoss="2.11" maxSpeed="1.36"/>
        <ride waitingTime="14.00" vehicle="bus.1" depart="194.00" arrival="227.00" arrivalPos="20.00" duration="33.00" routeLength="122.63" timeLoss="8.17"/>
        <walk depart="227.00" departPos="20.00" arrival="236.00" arrivalPos="30.00" duration="9.00" routeLength="10.00" timeLoss="1.63" maxSpeed="1.36"/>
    </personinfo>
    <personinfo id="persons3.11" depart="165.00" type="DEFAULT_PEDTYPE">
        <walk depart="165.00" departPos="0.00" arrival="178.00" arrivalPos="17.50" duration="13.00" routeLength="17.50" timeLoss="1.75" maxSpeed="1.56"/>
        <ride waitingTime="38.00" vehicle="bus.1" depart="216.00" arrival="227.00" arrivalPos="20.00" duration="11.00" routeLength="81.26" timeLoss="4.15"/>
        <walk depart="227.00" departPos="20.00" arrival="236.00" arrivalPos="30.00" duration="9.00" routeLength="10.00" timeLoss="2.57" maxSpeed="1.56"/>
    </personinfo>
    <personinfo id="persons3.12" depart="180.00" type="DEFAULT_PEDTYPE">
        <walk depart="180.00" departPos="0.00" arrival="194.00" arrivalPos="17.50" duration="14.00" routeLength="17.50" timeLoss="1.82" maxSpeed="1.44"/>
        <ride waitingTime="22.00" vehicle="bus.1" depart="216.00" arrival="228.00" arrivalPos="20.00" duration="12.00" routeLength="81.26" timeLoss="4.15"/>
        <walk depart="228.00" departPos="20.00" arrival="237.00" arrivalPos="30.00" duration="9.00" routeLength="10.00" timeLoss="2.04" maxSpeed="1.44"/>
    </personinfo>
    <personinfo id="persons3.13" depart="195.00" type="DEFAULT_PEDTYPE">
        <walk depart="195.00" departPos="0.00" arrival="210.00" arrivalPos="17.50" duration="15.00" routeLength="17.50" timeLoss="1.52" maxSpeed="1.30"/>
        <ride waitingTime="6.00" vehicle="bus.1" depart="216.00" arrival="228.00" arrivalPos="20.00" duration="12.00" routeLength="81.26" timeLoss="4.15"/>
        <walk depart="228.00" departPos="20.00" arrival="238.00" arrivalPos="30.00" duration="10.00" routeLength="10.00" timeLoss="2.30" maxSpeed="1.30"/>
    </personinfo>
    <personinfo id="persons4.8" depart="160.00" type="DEFAULT_PEDTYPE">
        <walk depart="160.00" departPos="0.00" arrival="175.00" arrivalPos="17.50" duration="15.00" routeLength="17.50" timeLoss="1.30" maxSpeed="1.28"/>
        <ride waitingTime="26.00" vehicle="bus.0" depart="201.00" arrival="234.00" arrivalPos="20.00" duration="33.00" routeLength="148.44" timeLoss="7.31"/>
        <walk depart="234.00" departPos="20.00" arrival="243.00" arrivalPos="30.00" duration="9.00" routeLength="10.00" timeLoss="1.17" maxSpeed="1.28"/>
    </personinfo>
    <personinfo id="persons4.9" depart="180.00" type="DEFAULT_PEDTYPE">
        <walk depart="180.00" departPos="0.00" arrival="195.00" arrivalPos="17.50" duration="15.00" routeLength="17.50" timeLoss="1.47" maxSpeed="1.29"/>
        <ride waitingTime="6.00" vehicle="bus.0" depart="201.00" arrival="234.00" arrivalPos="20.00" duration="33.00" routeLength="148.44" timeLoss="7.31"/>
        <walk depart="234.00" departPos="20.00" arrival="244.00" arrivalPos="30.00" duration="10.00" routeLength="10.00" timeLoss="2.27" maxSpeed="1.29"/>
    </personinfo>
    <personinfo id="persons.8" depart="200.00" type="DEFAULT_PEDTYPE">
        <walk depart="200.00" departPos="0.00" arrival="215.00" arrivalPos="17.50" duration="15.00" routeLength="17.50" timeLoss="1.57" maxSpeed="1.30"/>
        <ride waitingTime="26.00" vehicle="bus.1" depart="241.00" arrival="252.00" arrivalPos="20.00" duration="11.00" routeLength="107.07" timeLoss="3.29"/>
        <walk depart="252.00" departPos="20.00" arrival="261.00" arrivalPos="30.00" duration="9.00" routeLength="10.00" timeLoss="1.32" maxSpeed="1.30"/>
    </personinfo>
    <personinfo id="persons2.12" depart="180.00" type="DEFAULT_PEDTYPE">
        <walk depart="180.00" departPos="0.00" arrival="195.00" arrivalPos="17.50" duration="15.00" routeLength="17.50" timeLoss="1.99" maxSpeed="1.34"/>
        <ride waitingTime="32.00" vehicle="bus.0" depart="227.00" arrival="259.00" arrivalPos="20.00" duration="32.00" routeLength="122.63" timeLoss="8.17"/>
        <walk depart="259.00" departPos="20.00" arrival="268.00" arrivalPos="30.00" duration="9.00" routeLength="10.00" timeLoss="1.56" maxSpeed="1.34"/>
    </personinfo>
    <personinfo id="persons2.13" depart="195.00" type="DEFAULT_PEDTYPE">
        <walk depart="195.00" departPos="0.00" arrival="213.00" arrivalPos="17.50" duration="18.00" routeLength="17.50" timeLoss="2.31" maxSpeed="1.12"/>
        <ride waitingTime="14.00" vehicle="bus.0" depart="227.00" arrival="260.00" arrivalPos="20.00" duration="33.00" routeLength="122.63" timeLoss="8.17"/>
        <walk depart="260.00" departPos="20.00" arrival="270.00" arrivalPos="30.00" duration="10.00" routeLength="10.00" timeLoss="1.04" maxSpeed="1.12"/>
    </personinfo>
    <personinfo id="persons3.14" depart="210.00" type="DEFAULT_PEDTYPE">
        <walk depart="210.00" departPos="0.00" arrival="224.00" arrivalPos="17.50" duration="14.00" routeLength="17.50" timeLoss="1.74" maxSpeed="1.43"/>
        <ride waitingTime="25.00" vehicle="bus.0" depart="249.00" arrival="261.00" arrivalPos="20.00" duration="12.00" routeLength="81.26" timeLoss="4.15"/>
        <walk depart="261.00" departPos="20.00" arrival="270.00" arrivalPos="30.00" duration="9.00" routeLength="10.00" timeLoss="2.00" maxSpeed="1.43"/>
    </personinfo>
    <personinfo id="persons2.14" depart="210.00" type="DEFAULT_PEDTYPE">
        <walk depart="210.00" departPos="0.00" arrival="225.00" arrivalPos="17.50" duration="15.00" routeLength="17.50" timeLoss="2.41" maxSpeed="1.39"/>
        <ride waitingTime="2.00" vehicle="bus.0" depart="227.00" arrival="260.00" arrivalPos="20.00" duration="33.00" routeLength="122.63" timeLoss="8.17"/>
        <walk depart="260.00" departPos="20.00" arrival="271.00" arrivalPos="30.00" duration="11.00" routeLength="10.00" timeLoss="3.81" maxSpeed="1.39"/>
    </personinfo>
    <personinfo id="persons3.15" depart="225.00" type="DEFAULT_PEDTYPE">
        <walk depart="225.00" departPos="0.00" arrival="241.00" arrivalPos="17.50" duration="16.00" routeLength="17.50" timeLoss="2.23" maxSpeed="1.27"/>
        <ride waitingTime="8.00" vehicle="bus.0" depart="249.00" arrival="261.00" arrivalPos="20.00" duration="12.00" routeLength="81.26" timeLoss="4.15"/>
        <walk depart="261.00" departPos="20.00" arrival="271.00" arrivalPos="30.00" duration="10.00" routeLength="10.00" timeLoss="2.13" maxSpeed="1.27"/>
    </personinfo>
    <personinfo id="persons4.10" depart="200.00" type="DEFAULT_PEDTYPE">
        <walk depart="200.00" departPos="0.00" arrival="216.00" arrivalPos="17.50" duration="16.00" routeLength="17.50" timeLoss="3.23" maxSpeed="1.37"/>
        <ride waitingTime="25.00" vehicle="bus.1" depart="241.00" arrival="274.00" arrivalPos="20.00" duration="33.00" routeLength="148.44" timeLoss="7.31"/>
        <walk depart="274.00" departPos="20.00" arrival="282.00" arrivalPos="30.00" duration="8.00" routeLength="10.00" timeLoss="0.70" maxSpeed="1.37"/>
    </personinfo>
    <personinfo id="persons4.11" depart="220.00" type="DEFAULT_PEDTYPE">
        <walk depart="220.00" departPos="0.00" arrival="235.00" arrivalPos="17.50" duration="15.00" routeLength="17.50" timeLoss="1.88" maxSpeed="1.33"/>
        <ride waitingTime="6.00" vehicle="bus.1" depart="241.00" arrival="275.00" arrivalPos="20.00" duration="34.00" routeLength="148.44" timeLoss="7.31"/>
        <walk depart="275.00" departPos="20.00" arrival="284.00" arrivalPos="30.00" duration="9.00" routeLength="10.00" timeLoss="1.50" maxSpeed="1.33"/>
    </personinfo>
    <personinfo id="persons.10" depart="250.00" type="DEFAULT_PEDTYPE">
        <walk depart="250.00" departPos="0.00" arrival="263.00" arrivalPos="17.50" duration="13.00" routeLength="17.50" timeLoss="1.45" maxSpeed="1.51"/>
        <ride waitingTime="11.00" vehicle="bus.0" depart="274.00" arrival="286.00" arrivalPos="20.00" duration="12.00" routeLength="107.07" timeLoss="3.29"/>