<?xml version="1.0" encoding="UTF-8"?>

<!-- generated on 2022-11-14 00:12:49 by Eclipse SUMO GUI Version 1.14.1
<configuration xmlns:xsi="http://www.w3.org/2001/XMLSchema-instance" xsi:noNamespaceSchemaLocation="http://sumo.dlr.de/xsd/sumoConfiguration.xsd">

    <input>
        <net-file value="demo.net.xml"/>
        <additional-files value="demo.add.xml"/>
    </input>

    <output>
        <tripinfo-output value="tripinfo.xml"/>
    </output>

    <processing>
        <no-internal-links value="false"/>
    </processing>

    <traci_server>
        <remote-port value="51207"/>
    </traci_server>

</configuration>
-->

<tripinfos xmlns:xsi="http://www.w3.org/2001/XMLSchema-instance" xsi:noNamespaceSchemaLocation="http://sumo.dlr.de/xsd/tripinfo_file.xsd">
    <personinfo id="persons.0" depart="0.00" type="DEFAULT_PEDTYPE">
        <walk depart="0.00" departPos="0.00" arrival="14.00" arrivalPos="17.50" duration="14.00" routeLength="17.50" timeLoss="2.11" maxSpeed="1.47"/>
        <ride waitingTime="5.00" vehicle="bus.0" depart="19.00" arrival="30.00" arrivalPos="20.00" duration="11.00" routeLength="107.07" timeLoss="3.29"/>
        <walk depart="30.00" departPos="20.00" arrival="39.00" arrivalPos="30.00" duration="9.00" routeLength="10.00" timeLoss="1.80" maxSpeed="1.39"/>
    </personinfo>
    <personinfo id="persons.1" depart="25.00" type="DEFAULT_PEDTYPE">
        <walk depart="25.00" departPos="0.00" arrival="40.00" arrivalPos="17.50" duration="15.00" routeLength="17.50" timeLoss="1.57" maxSpeed="1.30"/>
        <ride waitingTime="52.00" vehicle="bus.0" depart="92.00" arrival="103.00" arrivalPos="20.00" duration="11.00" routeLength="107.07" timeLoss="3.29"/>
        <walk depart="103.00" departPos="20.00" arrival="111.00" arrivalPos="30.00" duration="8.00" routeLength="10.00" timeLoss="0.80" maxSpeed="1.39"/>
    </personinfo>
    <personinfo id="persons.2" depart="50.00" type="DEFAULT_PEDTYPE">
        <walk depart="50.00" departPos="0.00" arrival="64.00" arrivalPos="17.50" duration="14.00" routeLength="17.50" timeLoss="1.53" maxSpeed="1.40"/>
        <ride waitingTime="28.00" vehicle="bus.0" depart="92.00" arrival="103.00" arrivalPos="20.00" duration="11.00" routeLength="107.07" timeLoss="3.29"/>
        <walk depart="103.00" departPos="20.00" arrival="112.00" arrivalPos="30.00" duration="9.00" routeLength="10.00" timeLoss="1.80" maxSpeed="1.39"/>
    </personinfo>
    <personinfo id="persons.3" depart="75.00" type="DEFAULT_PEDTYPE">
        <walk depart="75.00" departPos="0.00" arrival="88.00" arrivalPos="17.50" duration="13.00" routeLength="17.50" timeLoss="1.36" maxSpeed="1.50"/>
        <ride waitingTime="4.00" vehicle="bus.0" depart="92.00" arrival="103.00" arrivalPos="20.00" duration="11.00" routeLength="107.07" timeLoss="3.29"/>
        <walk depart="103.00" departPos="20.00" arrival="113.00" arrivalPos="30.00" duration="10.00" routeLength="10.00" timeLoss="2.80" maxSpeed="1.39"/>
    </personinfo>
</tripinfos>
