<?xml version="1.0" encoding="UTF-8"?>

<!-- generated on 2023-03-19 22:32:48 by Eclipse SUMO GUI Version 1.14.1
<configuration xmlns:xsi="http://www.w3.org/2001/XMLSchema-instance" xsi:noNamespaceSchemaLocation="http://sumo.dlr.de/xsd/sumoConfiguration.xsd">

    <input>
        <net-file value="bunched/ring.net.xml"/>
        <additional-files value="bunched/ring.add.xml,bunched/persons.add.xml"/>
    </input>

    <output>
        <tripinfo-output value="tripinfo.xml"/>
    </output>

    <processing>
        <no-internal-links value="false"/>
        <lanechange.overtake-right value="true"/>
    </processing>

    <report>
        <no-warnings value="true"/>
    </report>

    <traci_server>
        <remote-port value="54723"/>
    </traci_server>

</configuration>
-->

<tripinfos xmlns:xsi="http://www.w3.org/2001/XMLSchema-instance" xsi:noNamespaceSchemaLocation="http://sumo.dlr.de/xsd/tripinfo_file.xsd">
    <personinfo id="p10" depart="0.00" type="DEFAULT_PEDTYPE">
        <walk depart="0.00" departPos="221.00" arrival="6.00" arrivalPos="226.67" duration="6.00" routeLength="5.67" timeLoss="1.24" maxSpeed="1.19"/>
        <ride waitingTime="20.00" vehicle="bus.1" depart="26.00" arrival="101.00" arrivalPos="231.67" duration="75.00" routeLength="886.67" timeLoss="11.67"/>
        <walk depart="101.00" departPos="231.67" arrival="116.00" arrivalPos="250.00" duration="15.00" routeLength="18.33" timeLoss="1.80" maxSpeed="1.39"/>
    </personinfo>
    <personinfo id="p18" depart="0.00" type="DEFAULT_PEDTYPE">
        <walk depart="0.00" departPos="221.00" arrival="9.00" arrivalPos="226.67" duration="9.00" routeLength="5.67" timeLoss="4.66" maxSpeed="1.31"/>
        <ride waitingTime="64.00" vehicle="bus.1" depart="73.00" arrival="102.00" arrivalPos="231.67" duration="29.00" routeLength="443.34" timeLoss="5.83"/>
        <walk depart="102.00" departPos="231.67" arrival="117.00" arrivalPos="250.00" duration="15.00" routeLength="18.33" timeLoss="1.80" maxSpeed="1.39"/>
    </personinfo>
    <personinfo id="pStop2.0" depart="1.58" type="DEFAULT_PEDTYPE">
        <walk depart="2.00" departPos="200.00" arrival="21.00" arrivalPos="226.67" duration="19.00" routeLength="26.67" timeLoss="2.40" maxSpeed="1.61"/>
        <ride waitingTime="52.00" vehicle="bus.1" depart="73.00" arrival="102.00" arrivalPos="231.67" duration="29.00" routeLength="443.34" timeLoss="5.83"/>
        <walk depart="102.00" departPos="231.67" arrival="118.00" arrivalPos="250.00" duration="16.00" routeLength="18.33" timeLoss="2.80" maxSpeed="1.39"/>
    </personinfo>
    <personinfo id="p28" depart="0.00" type="DEFAULT_PEDTYPE">
        <walk depart="0.00" departPos="221.00" arrival="9.00" arrivalPos="226.67" duration="9.00" routeLength="5.67" timeLoss="4.70" maxSpeed="1.32"/>
        <ride waitingTime="74.00" vehicle="bus.0" depart="83.00" arrival="139.00" arrivalPos="231.67" duration="56.00" routeLength="886.66" timeLoss="6.67"/>
        <walk depart="139.00" departPos="231.67" arrival="154.00" arrivalPos="250.00" duration="15.00" routeLength="18.33" timeLoss="1.80" maxSpeed="1.39"/>
    </personinfo>
    <personinfo id="p29" depart="0.00" type="DEFAULT_PEDTYPE">
        <walk depart="0.00" departPos="221.00" arrival="11.00" arrivalPos="226.67" duration="11.00" routeLength="5.67" timeLoss="7.39" maxSpeed="1.57"/>
        <ride waitingTime="72.00" vehicle="bus.0" depart="83.00" arrival="140.00" arrivalPos="231.67" duration="57.00" routeLength="886.66" timeLoss="6.67"/>
        <walk depart="140.00" departPos="231.67" arrival="155.00" arrivalPos="250.00" duration="15.00" routeLength="18.33" timeLoss="1.80" maxSpeed="1.39"/>
    </personinfo>
    <personinfo id="p2" depart="0.00" type="DEFAULT_PEDTYPE">
        <walk depart="0.00" departPos="221.00" arrival="6.00" arrivalPos="226.67" duration="6.00" routeLength="5.67" timeLoss="1.65" maxSpeed="1.30"/>
        <ride waitingTime="20.00" vehicle="bus.1" depart="26.00" arrival="151.00" arrivalPos="231.67" duration="125.00" routeLength="1330.00" timeLoss="17.50"/>
        <walk depart="151.00" departPos="231.67" arrival="166.00" arrivalPos="250.00" duration="15.00" routeLength="18.33" timeLoss="1.80" maxSpeed="1.39"/>
    </personinfo>
    <personinfo id="p4" depart="0.00" type="DEFAULT_PEDTYPE">
        <walk depart="0.00" departPos="221.00" arrival="7.00" arrivalPos="226.67" duration="7.00" routeLength="5.67" timeLoss="3.23" maxSpeed="1.50"/>
        <ride waitingTime="19.00" vehicle="bus.1" depart="26.00" arrival="151.00" arrivalPos="231.67" duration="125.00" routeLength="1330.00" timeLoss="17.50"/>
        <walk depart="151.00" departPos="231.67" arrival="167.00" arrivalPos="250.00" duration="16.00" routeLength="18.33" timeLoss="2.80" maxSpeed="1.39"/>
    </personinfo>
    <personinfo id="p3" depart="0.00" type="DEFAULT_PEDTYPE">
        <walk depart="0.00" departPos="221.00" arrival="7.00" arrivalPos="226.67" duration="7.00" routeLength="5.67" timeLoss="2.96" maxSpeed="1.40"/>
        <ride waitingTime="19.00" vehicle="bus.1" depart="26.00" arrival="152.00" arrivalPos="231.67" duration="126.00" routeLength="1330.00" timeLoss="17.50"/>
        <walk depart="152.00" departPos="231.67" arrival="167.00" arrivalPos="250.00" duration="15.00" routeLength="18.33" timeLoss="1.80" maxSpeed="1.39"/>
    </personinfo>
    <personinfo id="p9" depart="0.00" type="DEFAULT_PEDTYPE">
        <walk depart="0.00" departPos="221.00" arrival="9.00" arrivalPos="226.67" duration="9.00" routeLength="5.67" timeLoss="4.65" maxSpeed="1.30"/>
        <ride waitingTime="17.00" vehicle="bus.1" depart="26.00" arrival="152.00" arrivalPos="231.67" duration="126.00" routeLength="1330.00" timeLoss="17.50"/>
        <walk depart="152.00" departPos="231.67" arrival="168.00" arrivalPos="250.00" duration="16.00" routeLength="18.33" timeLoss="2.80" maxSpeed="1.39"/>
    </personinfo>
    <personinfo id="p6" depart="0.00" type="DEFAULT_PEDTYPE">
        <walk depart="0.00" departPos="221.00" arrival="9.00" arrivalPos="226.67" duration="9.00" routeLength="5.67" timeLoss="4.09" maxSpeed="1.15"/>
        <ride waitingTime="17.00" vehicle="bus.1" depart="26.00" arrival="153.00" arrivalPos="231.67" duration="127.00" routeLength="1330.00" timeLoss="17.50"/>
        <walk depart="153.00" departPos="231.67" arrival="168.00" arrivalPos="250.00" duration="15.00" routeLength="18.33" timeLoss="1.80" maxSpeed="1.39"/>
    </personinfo>
    <personinfo id="p15" depart="0.00" type="DEFAULT_PEDTYPE">
        <walk depart="0.00" departPos="221.00" arrival="7.00" arrivalPos="226.67" duration="7.00" routeLength="5.67" timeLoss="2.88" maxSpeed="1.38"/>
        <ride waitingTime="66.00" vehicle="bus.1" depart="73.00" arrival="182.00" arrivalPos="231.67" duration="109.00" routeLength="1330.00" timeLoss="17.50"/>
        <walk depart="182.00" departPos="231.67" arrival="197.00" arrivalPos="250.00" duration="15.00" routeLength="18.33" timeLoss="1.80" maxSpeed="1.39"/>
    </personinfo>
    <personinfo id="p5" depart="0.00" type="DEFAULT_PEDTYPE">
        <walk depart="0.00" departPos="221.00" arrival="8.00" arrivalPos="226.67" duration="8.00" routeLength="5.67" timeLoss="4.04" maxSpeed="1.43"/>
        <ride waitingTime="18.00" vehicle="bus.1" depart="26.00" arrival="182.00" arrivalPos="231.67" duration="156.00" routeLength="1773.33" timeLoss="23.33"/>
        <walk depart="182.00" departPos="231.67" arrival="198.00" arrivalPos="250.00" duration="16.00" routeLength="18.33" timeLoss="2.80" maxSpeed="1.39"/>
    </personinfo>
    <personinfo id="p14" depart="0.00" type="DEFAULT_PEDTYPE">
        <walk depart="0.00" departPos="221.00" arrival="7.00" arrivalPos="226.67" duration="7.00" routeLength="5.67" timeLoss="3.36" maxSpeed="1.56"/>
        <ride waitingTime="66.00" vehicle="bus.1" depart="73.00" arrival="183.00" arrivalPos="231.67" duration="110.00" routeLength="1330.00" timeLoss="17.50"/>
        <walk depart="183.00" departPos="231.67" arrival="198.00" arrivalPos="250.00" duration="15.00" routeLength="18.33" timeLoss="1.80" maxSpeed="1.39"/>
    </personinfo>
    <personinfo id="p20" depart="0.00" type="DEFAULT_PEDTYPE">
        <walk depart="0.00" departPos="221.00" arrival="9.00" arrivalPos="226.67" duration="9.00" routeLength="5.67" timeLoss="5.48" maxSpeed="1.61"/>
        <ride waitingTime="64.00" vehicle="bus.1" depart="73.00" arrival="183.00" arrivalPos="231.67" duration="110.00" routeLength="1330.00" timeLoss="17.50"/>
        <walk depart="183.00" departPos="231.67" arrival="199.00" arrivalPos="250.00" duration="16.00" routeLength="18.33" timeLoss="2.80" maxSpeed="1.39"/>
    </personinfo>
    <personinfo id="p32" depart="0.00" type="DEFAULT_PEDTYPE">
        <walk depart="0.00" departPos="221.00" arrival="5.00" arrivalPos="226.67" duration="5.00" routeLength="5.67" timeLoss="1.46" maxSpeed="1.60"/>
        <ride waitingTime="149.00" vehicle="bus.1" depart="154.00" arrival="184.00" arrivalPos="231.67" duration="30.00" routeLength="443.33" timeLoss="5.83"/>
        <walk depart="184.00" departPos="231.67" arrival="200.00" arrivalPos="250.00" duration="16.00" routeLength="18.33" timeLoss="2.80" maxSpeed="1.39"/>
    </personinfo>
    <personinfo id="p36" depart="0.00" type="DEFAULT_PEDTYPE">
        <walk depart="0.00" departPos="221.00" arrival="8.00" arrivalPos="226.67" duration="8.00" routeLength="5.67" timeLoss="4.00" maxSpeed="1.42"/>
        <ride waitingTime="146.00" vehicle="bus.1" depart="154.00" arrival="184.00" arrivalPos="231.67" duration="30.00" routeLength="443.33" timeLoss="5.83"/>
        <walk depart="184.00" departPos="231.67" arrival="200.00" arrivalPos="250.00" duration="16.00" routeLength="18.33" timeLoss="2.80" maxSpeed="1.39"/>
    </personinfo>
    <personinfo id="p23" depart="0.00" type="DEFAULT_PEDTYPE">
        <walk depart="0.00" departPos="221.00" arrival="7.00" arrivalPos="226.67" duration="7.00" routeLength="5.67" timeLoss="2.81" maxSpeed="1.35"/>
        <ride waitingTime="76.00" vehicle="bus.0" depart="83.00" arrival="214.00" arrivalPos="231.67" duration="131.00" routeLength="1773.33" timeLoss="13.33"/>
        <walk depart="214.00" departPos="231.67" arrival="229.00" arrivalPos="250.00" duration="15.00" routeLength="18.33" timeLoss="1.80" maxSpeed="1.39"/>
    </personinfo>
    <personinfo id="pStop5.1" depart="119.31" type="DEFAULT_PEDTYPE">
        <walk depart="120.00" departPos="200.00" arrival="139.00" arrivalPos="226.67" duration="19.00" routeLength="26.67" timeLoss="2.17" maxSpeed="1.58"/>
        <ride waitingTime="14.00" vehicle="bus.0" depart="153.00" arrival="214.00" arrivalPos="231.67" duration="61.00" routeLength="886.67" timeLoss="6.67"/>
        <walk depart="214.00" departPos="231.67" arrival="230.00" arrivalPos="250.00" duration="16.00" routeLength="18.33" timeLoss="2.80" maxSpeed="1.39"/>
    </personinfo>
    <personinfo id="p11" depart="0.00" type="DEFAULT_PEDTYPE">
        <walk depart="0.00" departPos="221.00" arrival="4.00" arrivalPos="226.67" duration="4.00" routeLength="5.67" timeLoss="0.26" maxSpeed="1.51"/>
        <ride waitingTime="69.00" vehicle="bus.1" depart="73.00" arrival="238.00" arrivalPos="231.67" duration="165.00" routeLength="1773.34" timeLoss="23.33"/>
        <walk depart="238.00" departPos="231.67" arrival="252.00" arrivalPos="250.00" duration="14.00" routeLength="18.33" timeLoss="0.80" maxSpeed="1.39"/>
    </personinfo>
    <personinfo id="p17" depart="0.00" type="DEFAULT_PEDTYPE">
        <walk depart="0.00" departPos="221.00" arrival="10.00" arrivalPos="226.67" duration="10.00" routeLength="5.67" timeLoss="5.35" maxSpeed="1.22"/>
        <ride waitingTime="63.00" vehicle="bus.1" depart="73.00" arrival="238.00" arrivalPos="231.67" duration="165.00" routeLength="1773.34" timeLoss="23.33"/>
        <walk depart="238.00" departPos="231.67" arrival="254.00" arrivalPos="250.00" duration="16.00" routeLength="18.33" timeLoss="2.80" maxSpeed="1.39"/>
    </personinfo>
    <personinfo id="p37" depart="0.00" type="DEFAULT_PEDTYPE">
        <walk depart="0.00" departPos="221.00" arrival="8.00" arrivalPos="226.67" duration="8.00" routeLength="5.67" timeLoss="3.81" maxSpeed="1.35"/>
        <ride waitingTime="146.00" vehicle="bus.1" depart="154.00" arrival="239.00" arrivalPos="231.67" duration="85.00" routeLength="886.67" timeLoss="11.67"/>
        <walk depart="239.00" departPos="231.67" arrival="254.00" arrivalPos="250.00" duration="15.00" routeLength="18.33" timeLoss="1.80" maxSpeed="1.39"/>
    </personinfo>
    <personinfo id="p39" depart="0.00" type="DEFAULT_PEDTYPE">
        <walk depart="0.00" departPos="221.00" arrival="9.00" arrivalPos="226.67" duration="9.00" routeLength="5.67" timeLoss="5.30" maxSpeed="1.53"/>
        <ride waitingTime="145.00" vehicle="bus.1" depart="154.00" arrival="239.00" arrivalPos="231.67" duration="85.00" routeLength="886.67" timeLoss="11.67"/>
        <walk depart="239.00" departPos="231.67" arrival="255.00" arrivalPos="250.00" duration="16.00" routeLength="18.33" timeLoss="2.80" maxSpeed="1.39"/>
    </personinfo>
    <personinfo id="p38" depart="0.00" type="DEFAULT_PEDTYPE">
        <walk depart="0.00" departPos="221.00" arrival="10.00" arrivalPos="226.67" duration="10.00" routeLength="5.67" timeLoss="6.54" maxSpeed="1.64"/>
        <ride waitingTime="144.00" vehicle="bus.1" depart="154.00" arrival="240.00" arrivalPos="231.67" duration="86.00" routeLength="886.67" timeLoss="11.67"/>
        <walk depart="240.00" departPos="231.67" arrival="256.00" arrivalPos="250.00" duration="16.00" routeLength="18.33" timeLoss="2.80" maxSpeed="1.39"/>
    </personinfo>
    <personinfo id="pStop5.4" depart="180.87" type="DEFAULT_PEDTYPE">
        <walk depart="181.00" departPos="200.00" arrival="206.00" arrivalPos="226.67" duration="25.00" routeLength="26.67" timeLoss="2.39" maxSpeed="1.18"/>
        <ride waitingTime="6.00" vehicle="bus.3" depart="212.00" arrival="276.00" arrivalPos="231.67" duration="64.00" routeLength="443.34" timeLoss="41.83"/>
        <walk depart="276.00" departPos="231.67" arrival="291.00" arrivalPos="250.00" duration="15.00" routeLength="18.33" timeLoss="1.80" maxSpeed="1.39"/>
    </personinfo>
    <personinfo id="p1" depart="0.00" type="DEFAULT_PEDTYPE">
        <walk depart="0.00" departPos="221.00" arrival="5.00" arrivalPos="226.67" duration="5.00" routeLength="5.67" timeLoss="1.15" maxSpeed="1.47"/>
        <ride waitingTime="21.00" vehicle="bus.1" depart="26.00" arrival="280.00" arrivalPos="231.67" duration="254.00" routeLength="2660.00" timeLoss="35.00"/>
        <walk depart="280.00" departPos="231.67" arrival="295.00" arrivalPos="250.00" duration="15.00" routeLength="18.33" timeLoss="1.80" maxSpeed="1.39"/>
    </personinfo>
    <personinfo id="p7" depart="0.00" type="DEFAULT_PEDTYPE">
        <walk depart="0.00" departPos="221.00" arrival="8.00" arrivalPos="226.67" duration="8.00" routeLength="5.67" timeLoss="4.10" maxSpeed="1.45"/>
        <ride waitingTime="18.00" vehicle="bus.1" depart="26.00" arrival="281.00" arrivalPos="231.67" duration="255.00" routeLength="2660.00" timeLoss="35.00"/>
        <walk depart="281.00" departPos="231.67" arrival="296.00" arrivalPos="250.00" duration="15.00" routeLength="18.33" timeLoss="1.80" maxSpeed="1.39"/>
    </personinfo>
    <personinfo id="p8" depart="0.00" type="DEFAULT_PEDTYPE">
        <walk depart="0.00" departPos="221.00" arrival="10.00" arrivalPos="226.67" duration="10.00" routeLength="5.67" timeLoss="5.39" maxSpeed="1.23"/>
        <ride waitingTime="16.00" vehicle="bus.1" depart="26.00" arrival="281.00" arrivalPos="231.67" duration="255.00" routeLength="2660.00" timeLoss="35.00"/>
        <walk depart="281.00" departPos="231.67" arrival="296.00" arrivalPos="250.00" duration="15.00" routeLength="18.33" timeLoss="1.80" maxSpeed="1.39"/>
    </personinfo>
    <personinfo id="p16" depart="0.00" type="DEFAULT_PEDTYPE">
        <walk depart="0.00" departPos="221.00" arrival="8.00" arrivalPos="226.67" duration="8.00" routeLength="5.67" timeLoss="3.60" maxSpeed="1.29"/>
        <ride waitingTime="65.00" vehicle="bus.1" depart="73.00" arrival="282.00" arrivalPos="231.67" duration="209.00" routeLength="2216.67" timeLoss="29.17"/>
        <walk depart="282.00" departPos="231.67" arrival="297.00" arrivalPos="250.00" duration="15.00" routeLength="18.33" timeLoss="1.80" maxSpeed="1.39"/>
    </personinfo>
    <personinfo id="p54" depart="0.00" type="DEFAULT_PEDTYPE">
        <walk depart="0.00" departPos="221.00" arrival="6.00" arrivalPos="226.67" duration="6.00" routeLength="5.67" timeLoss="2.28" maxSpeed="1.52"/>
        <ride waitingTime="245.00" vehicle="bus.1" depart="251.00" arrival="282.00" arrivalPos="231.67" duration="31.00" routeLength="443.33" timeLoss="5.83"/>
        <walk depart="282.00" departPos="231.67" arrival="298.00" arrivalPos="250.00" duration="16.00" routeLength="18.33" timeLoss="2.80" maxSpeed="1.39"/>
    </personinfo>
    <personinfo id="p52" depart="0.00" type="DEFAULT_PEDTYPE">
        <walk depart="0.00" departPos="221.00" arrival="7.00" arrivalPos="226.67" duration="7.00" routeLength="5.67" timeLoss="3.51" maxSpeed="1.62"/>
        <ride waitingTime="244.00" vehicle="bus.1" depart="251.00" arrival="283.00" arrivalPos="231.67" duration="32.00" routeLength="443.33" timeLoss="5.83"/>
        <walk depart="283.00" departPos="231.67" arrival="298.00" arrivalPos="250.00" duration="15.00" routeLength="18.33" timeLoss="1.80" maxSpeed="1.39"/>
    </personinfo>
    <tripinfo id="car45.0" depart="45.00" departLane="E0_0" departPos="5.10" departSpeed="0.00" departDelay="0.00" arrival="312.00" arrivalLane="E1_0" arrivalPos="100.00" arrivalSpeed="30.00" duration="267.00" routeLength="7731.56" waitingTime="0.00" waitingCount="0" stopTime="0.00" timeLoss="114.28" rerouteNo="1" devices="tripinfo_car45.0" vType="traffic" speedFactor="1.01" vaporized=""/>
    <personinfo id="p12" depart="0.00" type="DEFAULT_PEDTYPE">
        <walk depart="0.00" departPos="221.00" arrival="5.00" arrivalPos="226.67" duration="5.00" routeLength="5.67" timeLoss="1.02" maxSpeed="1.43"/>
        <ride waitingTime="68.00" vehicle="bus.1" depart="73.00" arrival="337.00" arrivalPos="231.67" duration="264.00" routeLength="2660.00" timeLoss="35.00"/>
        <walk depart="337.00" departPos="231.67" arrival="352.00" arrivalPos="250.00" duration="15.00" routeLength="18.33" timeLoss="1.80" maxSpeed="1.39"/>
    </personinfo>
    <personinfo id="p13" depart="0.00" type="DEFAULT_PEDTYPE">
        <walk depart="0.00" departPos="221.00" arrival="6.00" arrivalPos="226.67" duration="6.00" routeLength="5.67" timeLoss="2.10" maxSpeed="1.45"/>
        <ride waitingTime="67.00" vehicle="bus.1" depart="73.00" arrival="337.00" arrivalPos="231.67" duration="264.00" routeLength="2660.00" timeLoss="35.00"/>
        <walk depart="337.00" departPos="231.67" arrival="353.00" arrivalPos="250.00" duration="16.00" routeLength="18.33" timeLoss="2.80" maxSpeed="1.39"/>
    </personinfo>
    <personinfo id="p19" depart="0.00" type="DEFAULT_PEDTYPE">
        <walk depart="0.00" departPos="221.00" arrival="11.00" arrivalPos="226.67" duration="11.00" routeLength="5.67" timeLoss="6.64" maxSpeed="1.30"/>
        <ride waitingTime="62.00" vehicle="bus.1" depart="73.00" arrival="338.00" arrivalPos="231.67" duration="265.00" routeLength="2660.00" timeLoss="35.00"/>
        <walk depart="338.00" departPos="231.67" arrival="353.00" arrivalPos="250.00" duration="15.00" routeLength="18.33" timeLoss="1.80" maxSpeed="1.39"/>
    </personinfo>
    <personinfo id="pStop2.1" depart="21.28" type="DEFAULT_PEDTYPE">
        <walk depart="22.00" departPos="200.00" arrival="43.00" arrivalPos="226.67" duration="21.00" routeLength="26.67" timeLoss="2.23" maxSpeed="1.42"/>
        <ride waitingTime="30.00" vehicle="bus.1" depart="73.00" arrival="338.00" arrivalPos="231.67" duration="265.00" routeLength="2660.00" timeLoss="35.00"/>
        <walk depart="338.00" departPos="231.67" arrival="353.00" arrivalPos="250.00" duration="15.00" routeLength="18.33" timeLoss="1.80" maxSpeed="1.39"/>
    </personinfo>
    <personinfo id="p34" depart="0.00" type="DEFAULT_PEDTYPE">
        <walk depart="0.00" departPos="221.00" arrival="7.00" arrivalPos="226.67" duration="7.00" routeLength="5.67" timeLoss="3.52" maxSpeed="1.63"/>
        <ride waitingTime="147.00" vehicle="bus.1" depart="154.00" arrival="339.00" arrivalPos="231.67" duration="185.00" routeLength="1773.33" timeLoss="23.33"/>
        <walk depart="339.00" departPos="231.67" arrival="354.00" arrivalPos="250.00" duration="15.00" routeLength="18.33" timeLoss="1.80" maxSpeed="1.39"/>
    </personinfo>
    <personinfo id="pStop3.1" depart="76.41" type="DEFAULT_PEDTYPE">
        <walk depart="77.00" departPos="200.00" arrival="97.00" arrivalPos="226.67" duration="20.00" routeLength="26.67" timeLoss="2.38" maxSpeed="1.51"/>
        <ride waitingTime="21.00" vehicle="bus.1" depart="118.00" arrival="339.00" arrivalPos="231.67" duration="221.00" routeLength="2216.66" timeLoss="29.17"/>
        <walk depart="339.00" departPos="231.67" arrival="355.00" arrivalPos="250.00" duration="16.00" routeLength="18.33" timeLoss="2.80" maxSpeed="1.39"/>
    </personinfo>
    <personinfo id="p40" depart="0.00" type="DEFAULT_PEDTYPE">
        <walk depart="0.00" departPos="221.00" arrival="11.00" arrivalPos="226.67" duration="11.00" routeLength="5.67" timeLoss="6.47" maxSpeed="1.25"/>
        <ride waitingTime="143.00" vehicle="bus.1" depart="154.00" arrival="340.00" arrivalPos="231.67" duration="186.00" routeLength="1773.33" timeLoss="23.33"/>
        <walk depart="340.00" departPos="231.67" arrival="356.00" arrivalPos="250.00" duration="16.00" routeLength="18.33" timeLoss="2.80" maxSpeed="1.39"/>
    </personinfo>
    <personinfo id="pStop4.0" depart="33.63" type="DEFAULT_PEDTYPE">
        <walk depart="34.00" departPos="200.00" arrival="55.00" arrivalPos="226.67" duration="21.00" routeLength="26.67" timeLoss="3.03" maxSpeed="1.48"/>
        <ride waitingTime="99.00" vehicle="bus.1" depart="154.00" arrival="340.00" arrivalPos="231.67" duration="186.00" routeLength="1773.33" timeLoss="23.33"/>
        <walk depart="340.00" departPos="231.67" arrival="356.00" arrivalPos="250.00" duration="16.00" routeLength="18.33" timeLoss="2.80" maxSpeed="1.39"/>
    </personinfo>
    <personinfo id="p58" depart="0.00" type="DEFAULT_PEDTYPE">
        <walk depart="0.00" departPos="221.00" arrival="11.00" arrivalPos="226.67" duration="11.00" routeLength="5.67" timeLoss="7.43" maxSpeed="1.59"/>
        <ride waitingTime="240.00" vehicle="bus.1" depart="251.00" arrival="341.00" arrivalPos="231.67" duration="90.00" routeLength="886.66" timeLoss="11.67"/>
        <walk depart="341.00" departPos="231.67" arrival="357.00" arrivalPos="250.00" duration="16.00" routeLength="18.33" timeLoss="2.80" maxSpeed="1.39"/>
    </personinfo>
    <personinfo id="p60" depart="0.00" type="DEFAULT_PEDTYPE">
        <walk depart="0.00" departPos="221.00" arrival="10.00" arrivalPos="226.67" duration="10.00" routeLength="5.67" timeLoss="5.79" maxSpeed="1.35"/>
        <ride waitingTime="241.00" vehicle="bus.1" depart="251.00" arrival="341.00" arrivalPos="231.67" duration="90.00" routeLength="886.66" timeLoss="11.67"/>
        <walk depart="341.00" departPos="231.67" arrival="357.00" arrivalPos="250.00" duration="16.00" routeLength="18.33" timeLoss="2.80" maxSpeed="1.39"/>
    </personinfo>
    <personinfo id="pStop6.0" depart="26.05" type="DEFAULT_PEDTYPE">
        <walk depart="27.00" departPos="200.00" arrival="50.00" arrivalPos="226.67" duration="23.00" routeLength="26.67" timeLoss="3.13" maxSpeed="1.34"/>
        <ride waitingTime="201.00" vehicle="bus.1" depart="251.00" arrival="342.00" arrivalPos="231.67" duration="91.00" routeLength="886.66" timeLoss="11.67"/>
        <walk depart="342.00" departPos="231.67" arrival="357.00" arrivalPos="250.00" duration="15.00" routeLength="18.33" timeLoss="1.80" maxSpeed="1.39"/>
    </personinfo>
    <personinfo id="pStop7.13" depart="219.24" type="DEFAULT_PEDTYPE">
        <walk depart="220.00" departPos="200.00" arrival="240.00" arrivalPos="226.67" duration="20.00" routeLength="26.67" timeLoss="2.68" maxSpeed="1.54"/>
        <ride waitingTime="58.00" vehicle="bus.1" depart="298.00" arrival="342.00" arrivalPos="231.67" duration="44.00" routeLength="443.33" timeLoss="5.83"/>
        <walk depart="342.00" departPos="231.67" arrival="358.00" arrivalPos="250.00" duration="16.00" routeLength="18.33" timeLoss="2.80" maxSpeed="1.39"/>
    </personinfo>
    <personinfo id="pStop7.15" depart="220.15" type="DEFAULT_PEDTYPE">
        <walk depart="221.00" departPos="200.00" arrival="244.00" arrivalPos="226.67" duration="23.00" routeLength="26.67" timeLoss="3.28" maxSpeed="1.35"/>
        <ride waitingTime="54.00" vehicle="bus.1" depart="298.00" arrival="343.00" arrivalPos="231.67" duration="45.00" routeLength="443.33" timeLoss="5.83"/>
        <walk depart="343.00" departPos="231.67" arrival="358.00" arrivalPos="250.00" duration="15.00" routeLength="18.33" timeLoss="1.80" maxSpeed="1.39"/>
    </personinfo>
    <tripinfo id="car165.0" depart="165.00" departLane="E0_0" departPos="5.10" departSpeed="0.00" departDelay="0.00" arrival="360.00" arrivalLane="E1_0" arrivalPos="100.00" arrivalSpeed="50.00" duration="195.00" routeLength="7731.56" waitingTime="0.00" waitingCount="0" stopTime="0.00" timeLoss="40.68" rerouteNo="1" devices="tripinfo_car165.0" vType="traffic" speedFactor="1.01" vaporized=""/>
    <tripinfo id="car60.0" depart="60.00" departLane="E0_0" departPos="5.10" departSpeed="0.00" departDelay="0.00" arrival="361.00" arrivalLane="E1_0" arrivalPos="100.00" arrivalSpeed="49.55" duration="301.00" routeLength="13051.56" waitingTime="0.00" waitingCount="0" stopTime="0.00" timeLoss="37.19" rerouteNo="1" devices="tripinfo_car60.0" vType="traffic" speedFactor="0.99" vaporized=""/>
    <personinfo id="pStop6.10" depart="275.71" type="DEFAULT_PEDTYPE">
        <walk depart="276.00" departPos="200.00" arrival="301.00" arrivalPos="226.67" duration="25.00" routeLength="26.67" timeLoss="2.73" maxSpeed="1.20"/>
        <ride waitingTime="14.00" vehicle="bus.5" depart="315.00" arrival="348.00" arrivalPos="231.67" duration="33.00" routeLength="443.33" timeLoss="10.83"/>
        <walk depart="348.00" departPos="231.67" arrival="363.00" arrivalPos="250.00" duration="15.00" routeLength="18.33" timeLoss="1.80" maxSpeed="1.39"/>
    </personinfo>
    <personinfo id="pStop2.2" depart="62.48" type="DEFAULT_PEDTYPE">
        <walk depart="63.00" departPos="200.00" arrival="84.00" arrivalPos="226.67" duration="21.00" routeLength="26.67" timeLoss="2.71" maxSpeed="1.46"/>
        <ride waitingTime="9.00" vehicle="bus.2" depart="93.00" arrival="354.00" arrivalPos="231.67" duration="261.00" routeLength="2660.00" timeLoss="98.00"/>
        <walk depart="354.00" departPos="231.67" arrival="369.00" arrivalPos="250.00" duration="15.00" routeLength="18.33" timeLoss="1.80" maxSpeed="1.39"/>
    </personinfo>
    <personinfo id="pStop3.0" depart="62.97" type="DEFAULT_PEDTYPE">
        <walk depart="63.00" departPos="200.00" arrival="86.00" arrivalPos="226.67" duration="23.00" routeLength="26.67" timeLoss="3.08" maxSpeed="1.34"/>
        <ride waitingTime="32.00" vehicle="bus.1" depart="118.00" arrival="383.00" arrivalPos="231.67" duration="265.00" routeLength="2660.00" timeLoss="35.00"/>
        <walk depart="383.00" departPos="231.67" arrival="398.00" arrivalPos="250.00" duration="15.00" routeLength="18.33" timeLoss="1.80" maxSpeed="1.39"/>
    </personinfo>
    <personinfo id="p31" depart="0.00" type="DEFAULT_PEDTYPE">
        <walk depart="0.00" departPos="221.00" arrival="4.00" arrivalPos="226.67" duration="4.00" routeLength="5.67" timeLoss="0.54" maxSpeed="1.64"/>
        <ride waitingTime="150.00" vehicle="bus.1" depart="154.00" arrival="384.00" arrivalPos="231.67" duration="230.00" routeLength="2216.67" timeLoss="29.17"/>
        <walk depart="384.00" departPos="231.67" arrival="399.00" arrivalPos="250.00" duration="15.00" routeLength="18.33" timeLoss="1.80" maxSpeed="1.39"/>
    </personinfo>
    <personinfo id="p33" depart="0.00" type="DEFAULT_PEDTYPE">
        <walk depart="0.00" departPos="221.00" arrival="6.00" arrivalPos="226.67" duration="6.00" routeLength="5.67" timeLoss="1.94" maxSpeed="1.40"/>
        <ride waitingTime="148.00" vehicle="bus.1" depart="154.00" arrival="384.00" arrivalPos="231.67" duration="230.00" routeLength="2216.67" timeLoss="29.17"/>
        <walk depart="384.00" departPos="231.67" arrival="400.00" arrivalPos="250.00" duration="16.00" routeLength="18.33" timeLoss="2.80" maxSpeed="1.39"/>
    </personinfo>
    <personinfo id="p51" depart="0.00" type="DEFAULT_PEDTYPE">
        <walk depart="0.00" departPos="221.00" arrival="6.00" arrivalPos="226.67" duration="6.00" routeLength="5.67" timeLoss="1.23" maxSpeed="1.19"/>
        <ride waitingTime="245.00" vehicle="bus.1" depart="251.00" arrival="385.00" arrivalPos="231.67" duration="134.00" routeLength="1330.00" timeLoss="17.50"/>
        <walk depart="385.00" departPos="231.67" arrival="400.00" arrivalPos="250.00" duration="15.00" routeLength="18.33" timeLoss="1.80" maxSpeed="1.39"/>
    </personinfo>
    <personinfo id="p56" depart="0.00" type="DEFAULT_PEDTYPE">
        <walk depart="0.00" departPos="221.00" arrival="9.00" arrivalPos="226.67" duration="9.00" routeLength="5.67" timeLoss="4.90" maxSpeed="1.38"/>
        <ride waitingTime="242.00" vehicle="bus.1" depart="251.00" arrival="385.00" arrivalPos="231.67" duration="134.00" routeLength="1330.00" timeLoss="17.50"/>
        <walk depart="385.00" departPos="231.67" arrival="401.00" arrivalPos="250.00" duration="16.00" routeLength="18.33" timeLoss="2.80" maxSpeed="1.39"/>
    </personinfo>
    <personinfo id="pStop6.6" depart="170.01" type="DEFAULT_PEDTYPE">
        <walk depart="171.00" departPos="200.00" arrival="195.00" arrivalPos="226.67" duration="24.00" routeLength="26.67" timeLoss="2.67" maxSpeed="1.25"/>