<?xml version="1.0" encoding="UTF-8"?>

<!-- generated on 2023-04-28 18:28:05 by Eclipse SUMO GUI Version 1.14.1
<configuration xmlns:xsi="http://www.w3.org/2001/XMLSchema-instance" xsi:noNamespaceSchemaLocation="http://sumo.dlr.de/xsd/sumoConfiguration.xsd">

    <input>
        <net-file value="bunched/ring.net.xml"/>
        <additional-files value="bunched/ring.add.xml,bunched/persons.add.xml"/>
    </input>

    <output>
        <tripinfo-output value="tripinfo.xml"/>
    </output>

    <processing>
        <no-internal-links value="false"/>
        <lanechange.overtake-right value="true"/>
    </processing>

    <report>
        <no-warnings value="true"/>
    </report>

    <traci_server>
        <remote-port value="56469"/>
    </traci_server>

</configuration>
-->

<tripinfos xmlns:xsi="http://www.w3.org/2001/XMLSchema-instance" xsi:noNamespaceSchemaLocation="http://sumo.dlr.de/xsd/tripinfo_file.xsd">
    <personinfo id="p2" depart="0.00" type="DEFAULT_PEDTYPE">
        <walk depart="0.00" departPos="221.00" arrival="6.00" arrivalPos="226.67" duration="6.00" routeLength="5.67" timeLoss="1.65" maxSpeed="1.30"/>
        <ride waitingTime="20.00" vehicle="bus.1" depart="26.00" arrival="54.00" arrivalPos="231.67" duration="28.00" routeLength="443.33" timeLoss="5.83"/>
        <walk depart="54.00" departPos="231.67" arrival="69.00" arrivalPos="250.00" duration="15.00" routeLength="18.33" timeLoss="1.80" maxSpeed="1.39"/>
    </personinfo>
    <personinfo id="p6" depart="0.00" type="DEFAULT_PEDTYPE">
        <walk depart="0.00" departPos="221.00" arrival="9.00" arrivalPos="226.67" duration="9.00" routeLength="5.67" timeLoss="4.09" maxSpeed="1.15"/>
        <ride waitingTime="17.00" vehicle="bus.1" depart="26.00" arrival="54.00" arrivalPos="231.67" duration="28.00" routeLength="443.33" timeLoss="5.83"/>
        <walk depart="54.00" departPos="231.67" arrival="70.00" arrivalPos="250.00" duration="16.00" routeLength="18.33" timeLoss="2.80" maxSpeed="1.39"/>
    </personinfo>
    <personinfo id="p9" depart="0.00" type="DEFAULT_PEDTYPE">
        <walk depart="0.00" departPos="221.00" arrival="9.00" arrivalPos="226.67" duration="9.00" routeLength="5.67" timeLoss="4.65" maxSpeed="1.30"/>
        <ride waitingTime="17.00" vehicle="bus.1" depart="26.00" arrival="54.00" arrivalPos="231.67" duration="28.00" routeLength="443.33" timeLoss="5.83"/>
        <walk depart="54.00" departPos="231.67" arrival="70.00" arrivalPos="250.00" duration="16.00" routeLength="18.33" timeLoss="2.80" maxSpeed="1.39"/>
    </personinfo>
    <personinfo id="p8" depart="0.00" type="DEFAULT_PEDTYPE">
        <walk depart="0.00" departPos="221.00" arrival="10.00" arrivalPos="226.67" duration="10.00" routeLength="5.67" timeLoss="5.39" maxSpeed="1.23"/>
        <ride waitingTime="16.00" vehicle="bus.1" depart="26.00" arrival="127.00" arrivalPos="231.67" duration="101.00" routeLength="1330.00" timeLoss="12.50"/>
        <walk depart="127.00" departPos="231.67" arrival="142.00" arrivalPos="250.00" duration="15.00" routeLength="18.33" timeLoss="1.80" maxSpeed="1.39"/>
    </personinfo>
    <personinfo id="pStop2.1" depart="21.28" type="DEFAULT_PEDTYPE">
        <walk depart="22.00" departPos="200.00" arrival="43.00" arrivalPos="226.67" duration="21.00" routeLength="26.67" timeLoss="2.23" maxSpeed="1.42"/>
        <ride waitingTime="4.00" vehicle="bus.0" depart="47.00" arrival="199.00" arrivalPos="231.67" duration="152.00" routeLength="2660.00" timeLoss="10.00"/>
        <walk depart="199.00" departPos="231.67" arrival="214.00" arrivalPos="250.00" duration="15.00" routeLength="18.33" timeLoss="1.80" maxSpeed="1.39"/>
    </personinfo>
    <personinfo id="p3" depart="0.00" type="DEFAULT_PEDTYPE">
        <walk depart="0.00" departPos="221.00" arrival="7.00" arrivalPos="226.67" duration="7.00" routeLength="5.67" timeLoss="2.96" maxSpeed="1.40"/>
        <ride waitingTime="19.00" vehicle="bus.1" depart="26.00" arrival="226.00" arrivalPos="231.67" duration="200.00" routeLength="2660.00" timeLoss="20.00"/>
        <walk depart="226.00" departPos="231.67" arrival="241.00" arrivalPos="250.00" duration="15.00" routeLength="18.33" timeLoss="1.80" maxSpeed="1.39"/>
    </personinfo>
    <personinfo id="p7" depart="0.00" type="DEFAULT_PEDTYPE">
        <walk depart="0.00" departPos="221.00" arrival="8.00" arrivalPos="226.67" duration="8.00" routeLength="5.67" timeLoss="4.10" maxSpeed="1.45"/>
        <ride waitingTime="18.00" vehicle="bus.1" depart="26.00" arrival="226.00" arrivalPos="231.67" duration="200.00" routeLength="2660.00" timeLoss="20.00"/>
        <walk depart="226.00" departPos="231.67" arrival="242.00" arrivalPos="250.00" duration="16.00" routeLength="18.33" timeLoss="2.80" maxSpeed="1.39"/>
    </personinfo>
    <personinfo id="p37" depart="0.00" type="DEFAULT_PEDTYPE">
        <walk depart="0.00" departPos="221.00" arrival="8.00" arrivalPos="226.67" duration="8.00" routeLength="5.67" timeLoss="3.81" maxSpeed="1.35"/>
        <ride waitingTime="133.00" vehicle="bus.1" depart="141.00" arrival="227.00" arrivalPos="231.67" duration="86.00" routeLength="1330.00" timeLoss="7.50"/>
        <walk depart="227.00" departPos="231.67" arrival="242.00" arrivalPos="250.00" duration="15.00" routeLength="18.33" timeLoss="1.80" maxSpeed="1.39"/>
    </personinfo>
    <personinfo id="p77" depart="0.00" type="DEFAULT_PEDTYPE">
        <walk depart="0.00" departPos="221.00" arrival="10.00" arrivalPos="226.67" duration="10.00" routeLength="5.67" timeLoss="6.05" maxSpeed="1.43"/>
        <ride waitingTime="202.00" vehicle="bus.0" depart="212.00" arrival="245.00" arrivalPos="231.67" duration="33.00" routeLength="443.34" timeLoss="5.83"/>
        <walk depart="245.00" departPos="231.67" arrival="260.00" arrivalPos="250.00" duration="15.00" routeLength="18.33" timeLoss="1.80" maxSpeed="1.39"/>
    </personinfo>
    <personinfo id="p21" depart="0.00" type="DEFAULT_PEDTYPE">
        <walk depart="0.00" departPos="221.00" arrival="5.00" arrivalPos="226.67" duration="5.00" routeLength="5.67" timeLoss="0.99" maxSpeed="1.41"/>
        <ride waitingTime="133.00" vehicle="bus.2" depart="138.00" arrival="261.00" arrivalPos="231.67" duration="123.00" routeLength="1773.33" timeLoss="13.33"/>
        <walk depart="261.00" departPos="231.67" arrival="276.00" arrivalPos="250.00" duration="15.00" routeLength="18.33" timeLoss="1.80" maxSpeed="1.39"/>
    </personinfo>
    <personinfo id="p26" depart="0.00" type="DEFAULT_PEDTYPE">
        <walk depart="0.00" departPos="221.00" arrival="9.00" arrivalPos="226.67" duration="9.00" routeLength="5.67" timeLoss="4.32" maxSpeed="1.21"/>
        <ride waitingTime="129.00" vehicle="bus.2" depart="138.00" arrival="262.00" arrivalPos="231.67" duration="124.00" routeLength="1773.33" timeLoss="13.33"/>
        <walk depart="262.00" departPos="231.67" arrival="277.00" arrivalPos="250.00" duration="15.00" routeLength="18.33" timeLoss="1.80" maxSpeed="1.39"/>
    </personinfo>
    <personinfo id="p28" depart="0.00" type="DEFAULT_PEDTYPE">
        <walk depart="0.00" departPos="221.00" arrival="9.00" arrivalPos="226.67" duration="9.00" routeLength="5.67" timeLoss="4.70" maxSpeed="1.32"/>
        <ride waitingTime="129.00" vehicle="bus.2" depart="138.00" arrival="262.00" arrivalPos="231.67" duration="124.00" routeLength="1773.33" timeLoss="13.33"/>
        <walk depart="262.00" departPos="231.67" arrival="278.00" arrivalPos="250.00" duration="16.00" routeLength="18.33" timeLoss="2.80" maxSpeed="1.39"/>
    </personinfo>
    <personinfo id="p42" depart="0.00" type="DEFAULT_PEDTYPE">
        <walk depart="0.00" departPos="221.00" arrival="6.00" arrivalPos="226.67" duration="6.00" routeLength="5.67" timeLoss="1.74" maxSpeed="1.33"/>
        <ride waitingTime="203.00" vehicle="bus.2" depart="209.00" arrival="263.00" arrivalPos="231.67" duration="54.00" routeLength="886.67" timeLoss="6.67"/>
        <walk depart="263.00" departPos="231.67" arrival="279.00" arrivalPos="250.00" duration="16.00" routeLength="18.33" timeLoss="2.80" maxSpeed="1.39"/>
    </personinfo>
    <personinfo id="pStop3.0" depart="62.97" type="DEFAULT_PEDTYPE">
        <walk depart="63.00" departPos="200.00" arrival="85.00" arrivalPos="226.67" duration="22.00" routeLength="26.67" timeLoss="2.08" maxSpeed="1.34"/>
        <ride waitingTime="53.00" vehicle="bus.2" depart="138.00" arrival="263.00" arrivalPos="231.67" duration="125.00" routeLength="1773.33" timeLoss="13.33"/>
        <walk depart="263.00" departPos="231.67" arrival="279.00" arrivalPos="250.00" duration="16.00" routeLength="18.33" timeLoss="2.80" maxSpeed="1.39"/>
    </personinfo>
    <personinfo id="p45" depart="0.00" type="DEFAULT_PEDTYPE">
        <walk depart="0.00" departPos="221.00" arrival="9.00" arrivalPos="226.67" duration="9.00" routeLength="5.67" timeLoss="5.09" maxSpeed="1.45"/>
        <ride waitingTime="200.00" vehicle="bus.2" depart="209.00" arrival="264.00" arrivalPos="231.67" duration="55.00" routeLength="886.67" timeLoss="6.67"/>
        <walk depart="264.00" departPos="231.67" arrival="280.00" arrivalPos="250.00" duration="16.00" routeLength="18.33" timeLoss="2.80" maxSpeed="1.39"/>
    </personinfo>
    <personinfo id="pStop5.0" depart="101.98" type="DEFAULT_PEDTYPE">
        <walk depart="102.00" departPos="200.00" arrival="124.00" arrivalPos="226.67" duration="22.00" routeLength="26.67" timeLoss="2.49" maxSpeed="1.37"/>
        <ride waitingTime="85.00" vehicle="bus.2" depart="209.00" arrival="264.00" arrivalPos="231.67" duration="55.00" routeLength="886.67" timeLoss="6.67"/>
        <walk depart="264.00" departPos="231.67" arrival="280.00" arrivalPos="250.00" duration="16.00" routeLength="18.33" timeLoss="2.80" maxSpeed="1.39"/>
    </personinfo>
    <personinfo id="pStop5.1" depart="119.31" type="DEFAULT_PEDTYPE">
        <walk depart="120.00" departPos="200.00" arrival="139.00" arrivalPos="226.67" duration="19.00" routeLength="26.67" timeLoss="2.17" maxSpeed="1.58"/>
        <ride waitingTime="70.00" vehicle="bus.2" depart="209.00" arrival="265.00" arrivalPos="231.67" duration="56.00" routeLength="886.67" timeLoss="6.67"/>
        <walk depart="265.00" departPos="231.67" arrival="280.00" arrivalPos="250.00" duration="15.00" routeLength="18.33" timeLoss="1.80" maxSpeed="1.39"/>
    </personinfo>
    <personinfo id="p73" depart="0.00" type="DEFAULT_PEDTYPE">
        <walk depart="0.00" departPos="221.00" arrival="7.00" arrivalPos="226.67" duration="7.00" routeLength="5.67" timeLoss="2.66" maxSpeed="1.31"/>
        <ride waitingTime="205.00" vehicle="bus.0" depart="212.00" arrival="281.00" arrivalPos="231.67" duration="69.00" routeLength="886.67" timeLoss="11.67"/>
        <walk depart="281.00" departPos="231.67" arrival="296.00" arrivalPos="250.00" duration="15.00" routeLength="18.33" timeLoss="1.80" maxSpeed="1.39"/>
    </personinfo>
    <personinfo id="p76" depart="0.00" type="DEFAULT_PEDTYPE">
        <walk depart="0.00" departPos="221.00" arrival="8.00" arrivalPos="226.67" duration="8.00" routeLength="5.67" timeLoss="3.86" maxSpeed="1.37"/>
        <ride waitingTime="204.00" vehicle="bus.0" depart="212.00" arrival="281.00" arrivalPos="231.67" duration="69.00" routeLength="886.67" timeLoss="11.67"/>
        <walk depart="281.00" departPos="231.67" arrival="297.00" arrivalPos="250.00" duration="16.00" routeLength="18.33" timeLoss="2.80" maxSpeed="1.39"/>
    </personinfo>
    <personinfo id="p78" depart="0.00" type="DEFAULT_PEDTYPE">
        <walk depart="0.00" departPos="221.00" arrival="9.00" arrivalPos="226.67" duration="9.00" routeLength="5.67" timeLoss="4.84" maxSpeed="1.36"/>
        <ride waitingTime="203.00" vehicle="bus.0" depart="212.00" arrival="282.00" arrivalPos="231.67" duration="70.00" routeLength="886.67" timeLoss="11.67"/>
        <walk depart="282.00" departPos="231.67" arrival="297.00" arrivalPos="250.00" duration="15.00" routeLength="18.33" timeLoss="1.80" maxSpeed="1.39"/>
    </personinfo>
    <personinfo id="p89" depart="0.00" type="DEFAULT_PEDTYPE">
        <walk depart="0.00" departPos="221.00" arrival="9.00" arrivalPos="226.67" duration="9.00" routeLength="5.67" timeLoss="4.95" maxSpeed="1.40"/>
        <ride waitingTime="238.00" vehicle="bus.0" depart="247.00" arrival="282.00" arrivalPos="231.67" duration="35.00" routeLength="443.33" timeLoss="5.83"/>
        <walk depart="282.00" departPos="231.67" arrival="298.00" arrivalPos="250.00" duration="16.00" routeLength="18.33" timeLoss="2.80" maxSpeed="1.39"/>
    </personinfo>
    <personinfo id="p32" depart="0.00" type="DEFAULT_PEDTYPE">
        <walk depart="0.00" departPos="221.00" arrival="5.00" arrivalPos="226.67" duration="5.00" routeLength="5.67" timeLoss="1.46" maxSpeed="1.60"/>
        <ride waitingTime="136.00" vehicle="bus.1" depart="141.00" arrival="288.00" arrivalPos="231.67" duration="147.00" routeLength="2216.67" timeLoss="14.17"/>
        <walk depart="288.00" departPos="231.67" arrival="303.00" arrivalPos="250.00" duration="15.00" routeLength="18.33" timeLoss="1.80" maxSpeed="1.39"/>
    </personinfo>
    <personinfo id="p61" depart="0.00" type="DEFAULT_PEDTYPE">
        <walk depart="0.00" departPos="221.00" arrival="5.00" arrivalPos="226.67" duration="5.00" routeLength="5.67" timeLoss="1.23" maxSpeed="1.50"/>
        <ride waitingTime="232.00" vehicle="bus.1" depart="237.00" arrival="288.00" arrivalPos="231.67" duration="51.00" routeLength="886.67" timeLoss="6.67"/>
        <walk depart="288.00" departPos="231.67" arrival="303.00" arrivalPos="250.00" duration="15.00" routeLength="18.33" timeLoss="1.80" maxSpeed="1.39"/>
    </personinfo>
    <personinfo id="p63" depart="0.00" type="DEFAULT_PEDTYPE">
        <walk depart="0.00" departPos="221.00" arrival="6.00" arrivalPos="226.67" duration="6.00" routeLength="5.67" timeLoss="1.98" maxSpeed="1.41"/>
        <ride waitingTime="231.00" vehicle="bus.1" depart="237.00" arrival="289.00" arrivalPos="231.67" duration="52.00" routeLength="886.67" timeLoss="6.67"/>
        <walk depart="289.00" departPos="231.67" arrival="304.00" arrivalPos="250.00" duration="15.00" routeLength="18.33" timeLoss="1.80" maxSpeed="1.39"/>
    </personinfo>
    <personinfo id="p68" depart="0.00" type="DEFAULT_PEDTYPE">
        <walk depart="0.00" departPos="221.00" arrival="8.00" arrivalPos="226.67" duration="8.00" routeLength="5.67" timeLoss="3.54" maxSpeed="1.27"/>
        <ride waitingTime="229.00" vehicle="bus.1" depart="237.00" arrival="289.00" arrivalPos="231.67" duration="52.00" routeLength="886.67" timeLoss="6.67"/>
        <walk depart="289.00" departPos="231.67" arrival="305.00" arrivalPos="250.00" duration="16.00" routeLength="18.33" timeLoss="2.80" maxSpeed="1.39"/>
    </personinfo>
    <personinfo id="pStop7.5" depart="140.34" type="DEFAULT_PEDTYPE">
        <walk depart="141.00" departPos="200.00" arrival="163.00" arrivalPos="226.67" duration="22.00" routeLength="26.67" timeLoss="2.64" maxSpeed="1.38"/>
        <ride waitingTime="74.00" vehicle="bus.1" depart="237.00" arrival="290.00" arrivalPos="231.67" duration="53.00" routeLength="886.67" timeLoss="6.67"/>
        <walk depart="290.00" departPos="231.67" arrival="305.00" arrivalPos="250.00" duration="15.00" routeLength="18.33" timeLoss="1.80" maxSpeed="1.39"/>
    </personinfo>
    <personinfo id="pStop7.6" depart="161.78" type="DEFAULT_PEDTYPE">
        <walk depart="162.00" departPos="200.00" arrival="186.00" arrivalPos="226.67" duration="24.00" routeLength="26.67" timeLoss="3.21" maxSpeed="1.28"/>
        <ride waitingTime="51.00" vehicle="bus.1" depart="237.00" arrival="290.00" arrivalPos="231.67" duration="53.00" routeLength="886.67" timeLoss="6.67"/>
        <walk depart="290.00" departPos="231.67" arrival="306.00" arrivalPos="250.00" duration="16.00" routeLength="18.33" timeLoss="2.80" maxSpeed="1.39"/>
    </personinfo>
    <personinfo id="pStop7.9" depart="170.11" type="DEFAULT_PEDTYPE">
        <walk depart="171.00" departPos="200.00" arrival="194.00" arrivalPos="226.67" duration="23.00" routeLength="26.67" timeLoss="5.29" maxSpeed="1.51"/>
        <ride waitingTime="43.00" vehicle="bus.1" depart="237.00" arrival="291.00" arrivalPos="231.67" duration="54.00" routeLength="886.67" timeLoss="6.67"/>
        <walk depart="291.00" departPos="231.67" arrival="307.00" arrivalPos="250.00" duration="16.00" routeLength="18.33" timeLoss="2.80" maxSpeed="1.39"/>
    </personinfo>
    <personinfo id="p25" depart="0.00" type="DEFAULT_PEDTYPE">
        <walk depart="0.00" departPos="221.00" arrival="8.00" arrivalPos="226.67" duration="8.00" routeLength="5.67" timeLoss="3.06" maxSpeed="1.15"/>
        <ride waitingTime="130.00" vehicle="bus.2" depart="138.00" arrival="317.00" arrivalPos="231.67" duration="179.00" routeLength="2660.00" timeLoss="20.00"/>
        <walk depart="317.00" departPos="231.67" arrival="332.00" arrivalPos="250.00" duration="15.00" routeLength="18.33" timeLoss="1.80" maxSpeed="1.39"/>
    </personinfo>
    <personinfo id="p30" depart="0.00" type="DEFAULT_PEDTYPE">
        <walk depart="0.00" departPos="221.00" arrival="10.00" arrivalPos="226.67" duration="10.00" routeLength="5.67" timeLoss="5.62" maxSpeed="1.29"/>
        <ride waitingTime="128.00" vehicle="bus.2" depart="138.00" arrival="317.00" arrivalPos="231.67" duration="179.00" routeLength="2660.00" timeLoss="20.00"/>
        <walk depart="317.00" departPos="231.67" arrival="333.00" arrivalPos="250.00" duration="16.00" routeLength="18.33" timeLoss="2.80" maxSpeed="1.39"/>
    </personinfo>
    <personinfo id="p44" depart="0.00" type="DEFAULT_PEDTYPE">
        <walk depart="0.00" departPos="221.00" arrival="5.00" arrivalPos="226.67" duration="5.00" routeLength="5.67" timeLoss="1.07" maxSpeed="1.44"/>
        <ride waitingTime="204.00" vehicle="bus.2" depart="209.00" arrival="317.00" arrivalPos="231.67" duration="108.00" routeLength="1773.34" timeLoss="13.33"/>
        <walk depart="317.00" departPos="231.67" arrival="333.00" arrivalPos="250.00" duration="16.00" routeLength="18.33" timeLoss="2.80" maxSpeed="1.39"/>
    </personinfo>
    <personinfo id="p47" depart="0.00" type="DEFAULT_PEDTYPE">
        <walk depart="0.00" departPos="221.00" arrival="7.00" arrivalPos="226.67" duration="7.00" routeLength="5.67" timeLoss="2.91" maxSpeed="1.39"/>
        <ride waitingTime="202.00" vehicle="bus.2" depart="209.00" arrival="318.00" arrivalPos="231.67" duration="109.00" routeLength="1773.34" timeLoss="13.33"/>
        <walk depart="318.00" departPos="231.67" arrival="333.00" arrivalPos="250.00" duration="15.00" routeLength="18.33" timeLoss="1.80" maxSpeed="1.39"/>
    </personinfo>
    <personinfo id="p53" depart="0.00" type="DEFAULT_PEDTYPE">
        <walk depart="0.00" departPos="221.00" arrival="8.00" arrivalPos="226.67" duration="8.00" routeLength="5.67" timeLoss="3.99" maxSpeed="1.41"/>
        <ride waitingTime="295.00" vehicle="bus.4" depart="303.00" arrival="332.00" arrivalPos="231.67" duration="29.00" routeLength="443.33" timeLoss="5.83"/>
        <walk depart="332.00" departPos="231.67" arrival="347.00" arrivalPos="250.00" duration="15.00" routeLength="18.33" timeLoss="1.80" maxSpeed="1.39"/>
    </personinfo>
    <personinfo id="pStop4.2" depart="193.19" type="DEFAULT_PEDTYPE">
        <walk depart="194.00" departPos="200.00" arrival="216.00" arrivalPos="226.67" duration="22.00" routeLength="26.67" timeLoss="2.55" maxSpeed="1.37"/>
        <ride waitingTime="1.00" vehicle="bus.4" depart="217.00" arrival="332.00" arrivalPos="231.67" duration="115.00" routeLength="1330.00" timeLoss="17.50"/>
        <walk depart="332.00" departPos="231.67" arrival="348.00" arrivalPos="250.00" duration="16.00" routeLength="18.33" timeLoss="2.80" maxSpeed="1.39"/>
    </personinfo>
    <personinfo id="p60" depart="0.00" type="DEFAULT_PEDTYPE">
        <walk depart="0.00" departPos="221.00" arrival="10.00" arrivalPos="226.67" duration="10.00" routeLength="5.67" timeLoss="5.79" maxSpeed="1.35"/>
        <ride waitingTime="293.00" vehicle="bus.4" depart="303.00" arrival="333.00" arrivalPos="231.67" duration="30.00" routeLength="443.33" timeLoss="5.83"/>
        <walk depart="333.00" departPos="231.67" arrival="349.00" arrivalPos="250.00" duration="16.00" routeLength="18.33" timeLoss="2.80" maxSpeed="1.39"/>
    </personinfo>
    <personinfo id="pStop6.3" depart="126.56" type="DEFAULT_PEDTYPE">
        <walk depart="127.00" departPos="200.00" arrival="153.00" arrivalPos="226.67" duration="26.00" routeLength="26.67" timeLoss="2.80" maxSpeed="1.15"/>
        <ride waitingTime="150.00" vehicle="bus.4" depart="303.00" arrival="333.00" arrivalPos="231.67" duration="30.00" routeLength="443.33" timeLoss="5.83"/>
        <walk depart="333.00" departPos="231.67" arrival="349.00" arrivalPos="250.00" duration="16.00" routeLength="18.33" timeLoss="2.80" maxSpeed="1.39"/>
    </personinfo>
    <personinfo id="p40" depart="0.00" type="DEFAULT_PEDTYPE">
        <walk depart="0.00" departPos="221.00" arrival="11.00" arrivalPos="226.67" duration="11.00" routeLength="5.67" timeLoss="6.47" maxSpeed="1.25"/>
        <ride waitingTime="130.00" vehicle="bus.1" depart="141.00" arrival="335.00" arrivalPos="231.67" duration="194.00" routeLength="2660.00" timeLoss="20.00"/>
        <walk depart="335.00" departPos="231.67" arrival="350.00" arrivalPos="250.00" duration="15.00" routeLength="18.33" timeLoss="1.80" maxSpeed="1.39"/>
    </personinfo>
    <personinfo id="p67" depart="0.00" type="DEFAULT_PEDTYPE">
        <walk depart="0.00" departPos="221.00" arrival="8.00" arrivalPos="226.67" duration="8.00" routeLength="5.67" timeLoss="3.50" maxSpeed="1.26"/>
        <ride waitingTime="229.00" vehicle="bus.1" depart="237.00" arrival="335.00" arrivalPos="231.67" duration="98.00" routeLength="1330.00" timeLoss="12.50"/>
        <walk depart="335.00" departPos="231.67" arrival="351.00" arrivalPos="250.00" duration="16.00" routeLength="18.33" timeLoss="2.80" maxSpeed="1.39"/>
    </personinfo>
    <personinfo id="p66" depart="0.00" type="DEFAULT_PEDTYPE">
        <walk depart="0.00" departPos="221.00" arrival="9.00" arrivalPos="226.67" duration="9.00" routeLength="5.67" timeLoss="4.37" maxSpeed="1.23"/>
        <ride waitingTime="228.00" vehicle="bus.1" depart="237.00" arrival="336.00" arrivalPos="231.67" duration="99.00" routeLength="1330.00" timeLoss="12.50"/>
        <walk depart="336.00" departPos="231.67" arrival="352.00" arrivalPos="250.00" duration="16.00" routeLength="18.33" timeLoss="2.80" maxSpeed="1.39"/>
    </personinfo>
    <personinfo id="p70" depart="0.00" type="DEFAULT_PEDTYPE">
        <walk depart="0.00" departPos="221.00" arrival="10.00" arrivalPos="226.67" duration="10.00" routeLength="5.67" timeLoss="6.01" maxSpeed="1.42"/>
        <ride waitingTime="227.00" vehicle="bus.1" depart="237.00" arrival="336.00" arrivalPos="231.67" duration="99.00" routeLength="1330.00" timeLoss="12.50"/>
        <walk depart="336.00" departPos="231.67" arrival="352.00" arrivalPos="250.00" duration="16.00" routeLength="18.33" timeLoss="2.80" maxSpeed="1.39"/>
    </personinfo>
    <personinfo id="p72" depart="0.00" type="DEFAULT_PEDTYPE">
        <walk depart="0.00" departPos="221.00" arrival="6.00" arrivalPos="226.67" duration="6.00" routeLength="5.67" timeLoss="1.80" maxSpeed="1.35"/>
        <ride waitingTime="206.00" vehicle="bus.0" depart="212.00" arrival="358.00" arrivalPos="231.67" duration="146.00" routeLength="2216.67" timeLoss="19.17"/>
        <walk depart="358.00" departPos="231.67" arrival="373.00" arrivalPos="250.00" duration="15.00" routeLength="18.33" timeLoss="1.80" maxSpeed="1.39"/>
    </personinfo>
    <personinfo id="pStop4.1" depart="149.41" type="DEFAULT_PEDTYPE">
        <walk depart="150.00" departPos="200.00" arrival="168.00" arrivalPos="226.67" duration="18.00" routeLength="26.67" timeLoss="1.91" maxSpeed="1.66"/>
        <ride waitingTime="15.00" vehicle="bus.3" depart="183.00" arrival="359.00" arrivalPos="231.67" duration="176.00" routeLength="2216.67" timeLoss="33.17"/>
        <walk depart="359.00" departPos="231.67" arrival="373.00" arrivalPos="250.00" duration="14.00" routeLength="18.33" timeLoss="0.80" maxSpeed="1.39"/>
    </personinfo>
    <personinfo id="pStop8.3" depart="107.35" type="DEFAULT_PEDTYPE">
        <walk depart="108.00" departPos="200.00" arrival="136.00" arrivalPos="226.67" duration="28.00" routeLength="26.67" timeLoss="3.27" maxSpeed="1.08"/>
        <ride waitingTime="76.00" vehicle="bus.0" depart="212.00" arrival="358.00" arrivalPos="231.67" duration="146.00" routeLength="2216.67" timeLoss="19.17"/>
        <walk depart="358.00" departPos="231.67" arrival="374.00" arrivalPos="250.00" duration="16.00" routeLength="18.33" timeLoss="2.80" maxSpeed="1.39"/>
    </personinfo>
    <personinfo id="p91" depart="0.00" type="DEFAULT_PEDTYPE">
        <walk depart="0.00" departPos="221.00" arrival="6.00" arrivalPos="226.67" duration="6.00" routeLength="5.67" timeLoss="1.99" maxSpeed="1.41"/>
        <ride waitingTime="278.00" vehicle="bus.0" depart="284.00" arrival="359.00" arrivalPos="231.67" duration="75.00" routeLength="1330.00" timeLoss="7.50"/>
        <walk depart="359.00" departPos="231.67" arrival="375.00" arrivalPos="250.00" duration="16.00" routeLength="18.33" timeLoss="2.80" maxSpeed="1.39"/>
    </personinfo>
    <personinfo id="pStop8.4" depart="115.43" type="DEFAULT_PEDTYPE">
        <walk depart="116.00" departPos="200.00" arrival="139.00" arrivalPos="226.67" duration="23.00" routeLength="26.67" timeLoss="2.93" maxSpeed="1.33"/>
        <ride waitingTime="73.00" vehicle="bus.0" depart="212.00" arrival="359.00" arrivalPos="231.67" duration="147.00" routeLength="2216.67" timeLoss="19.17"/>
        <walk depart="359.00" departPos="231.67" arrival="375.00" arrivalPos="250.00" duration="16.00" routeLength="18.33" timeLoss="2.80" maxSpeed="1.39"/>
    </personinfo>
    <personinfo id="p93" depart="0.00" type="DEFAULT_PEDTYPE">
        <walk depart="0.00" departPos="221.00" arrival="9.00" arrivalPos="226.67" duration="9.00" routeLength="5.67" timeLoss="4.10" maxSpeed="1.16"/>
        <ride waitingTime="275.00" vehicle="bus.0" depart="284.00" arrival="360.00" arrivalPos="231.67" duration="76.00" routeLength="1330.00" timeLoss="7.50"/>
        <walk depart="360.00" departPos="231.67" arrival="376.00" arrivalPos="250.00" duration="16.00" routeLength="18.33" timeLoss="2.80" maxSpeed="1.39"/>
    </personinfo>
    <personinfo id="pStop10.0" depart="60.53" type="DEFAULT_PEDTYPE">
        <walk depart="61.00" departPos="200.00" arrival="80.00" arrivalPos="226.67" duration="19.00" routeLength="26.67" timeLoss="2.52" maxSpeed="1.62"/>
        <ride waitingTime="204.00" vehicle="bus.0" depart="284.00" arrival="360.00" arrivalPos="231.67" duration="76.00" routeLength="1330.00" timeLoss="7.50"/>
        <walk depart="360.00" departPos="231.67" arrival="376.00" arrivalPos="250.00" duration="16.00" routeLength="18.33" timeLoss="2.80" maxSpeed="1.39"/>
    </personinfo>
    <personinfo id="pStop10.1" depart="105.69" type="DEFAULT_PEDTYPE">
        <walk depart="106.00" departPos="200.00" arrival="125.00" arrivalPos="226.67" duration="19.00" routeLength="26.67" timeLoss="2.00" maxSpeed="1.57"/>
        <ride waitingTime="159.00" vehicle="bus.0" depart="284.00" arrival="361.00" arrivalPos="231.67" duration="77.00" routeLength="1330.00" timeLoss="7.50"/>
        <walk depart="361.00" departPos="231.67" arrival="377.00" arrivalPos="250.00" duration="16.00" routeLength="18.33" timeLoss="2.80" maxSpeed="1.39"/>
    </personinfo>
    <personinfo id="p55" depart="0.00" type="DEFAULT_PEDTYPE">
        <walk depart="0.00" departPos="221.00" arrival="9.00" arrivalPos="226.67" duration="9.00" routeLength="5.67" timeLoss="4.93" maxSpeed="1.39"/>
        <ride waitingTime="294.00" vehicle="bus.4" depart="303.00" arrival="363.00" arrivalPos="231.67" duration="60.00" routeLength="886.66" timeLoss="11.67"/>
        <walk depart="363.00" departPos="231.67" arrival="378.00" arrivalPos="250.00" duration="15.00" routeLength="18.33" timeLoss="1.80" maxSpeed="1.39"/>
    </personinfo>
    <personinfo id="p50" depart="0.00" type="DEFAULT_PEDTYPE">
        <walk depart="0.00" departPos="221.00" arrival="10.00" arrivalPos="226.67" duration="10.00" routeLength="5.67" timeLoss="5.20" maxSpeed="1.18"/>
        <ride waitingTime="199.00" vehicle="bus.2" depart="209.00" arrival="363.00" arrivalPos="231.67" duration="154.00" routeLength="2216.67" timeLoss="19.17"/>
        <walk depart="363.00" departPos="231.67" arrival="378.00" arrivalPos="250.00" duration="15.00" routeLength="18.33" timeLoss="1.80" maxSpeed="1.39"/>
    </personinfo>
    <personinfo id="pStop6.4" depart="142.35" type="DEFAULT_PEDTYPE">
        <walk depart="143.00" departPos="200.00" arrival="165.00" arrivalPos="226.67" duration="22.00" routeLength="26.67" timeLoss="2.53" maxSpeed="1.37"/>
        <ride waitingTime="138.00" vehicle="bus.4" depart="303.00" arrival="364.00" arrivalPos="231.67" duration="61.00" routeLength="886.66" timeLoss="11.67"/>
        <walk depart="364.00" departPos="231.67" arrival="379.00" arrivalPos="250.00" duration="15.00" routeLength="18.33" timeLoss="1.80" maxSpeed="1.39"/>
    </personinfo>
    <personinfo id="pStop5.3" depart="129.64" type="DEFAULT_PEDTYPE">
        <walk depart="130.00" departPos="200.00" arrival="153.00" arrivalPos="226.67" duration="23.00" routeLength="26.67" timeLoss="2.90" maxSpeed="1.33"/>
        <ride waitingTime="56.00" vehicle="bus.2" depart="209.00" arrival="363.00" arrivalPos="231.67" duration="154.00" routeLength="2216.67" timeLoss="19.17"/>
        <walk depart="363.00" departPos="231.67" arrival="379.00" arrivalPos="250.00" duration="16.00" routeLength="18.33" timeLoss="2.80" maxSpeed="1.39"/>
    </personinfo>
    <personinfo id="pStop7.14" depart="219.84" type="DEFAULT_PEDTYPE">
        <walk depart="220.00" departPos="200.00" arrival="243.00" arrivalPos="226.67" duration="23.00" routeLength="26.67" timeLoss="3.01" maxSpeed="1.33"/>