<?xml version="1.0" encoding="UTF-8"?>

<!-- generated on 2023-02-28 22:44:46 by Eclipse SUMO GUI Version 1.14.1
<configuration xmlns:xsi="http://www.w3.org/2001/XMLSchema-instance" xsi:noNamespaceSchemaLocation="http://sumo.dlr.de/xsd/sumoConfiguration.xsd">

    <input>
        <net-file value="ring.net.xml"/>
        <additional-files value="ring.add.xml,persons.add.xml"/>
    </input>

    <output>
        <tripinfo-output value="tripinfo.xml"/>
    </output>

    <processing>
        <no-internal-links value="false"/>
    </processing>

    <report>
        <no-warnings value="true"/>
    </report>

    <traci_server>
        <remote-port value="65090"/>
    </traci_server>

</configuration>
-->

<tripinfos xmlns:xsi="http://www.w3.org/2001/XMLSchema-instance" xsi:noNamespaceSchemaLocation="http://sumo.dlr.de/xsd/tripinfo_file.xsd">
    <personinfo id="p25" depart="0.00" type="DEFAULT_PEDTYPE">
        <walk depart="0.00" departPos="221.00" arrival="8.00" arrivalPos="226.67" duration="8.00" routeLength="5.67" timeLoss="3.06" maxSpeed="1.15"/>
        <ride waitingTime="26.00" vehicle="bus.5" depart="34.00" arrival="70.00" arrivalPos="231.67" duration="36.00" routeLength="443.33" timeLoss="4.41"/>
        <walk depart="70.00" departPos="231.67" arrival="85.00" arrivalPos="250.00" duration="15.00" routeLength="18.33" timeLoss="1.80" maxSpeed="1.39"/>
    </personinfo>
    <personinfo id="p41" depart="0.00" type="DEFAULT_PEDTYPE">
        <walk depart="0.00" departPos="221.00" arrival="5.00" arrivalPos="226.67" duration="5.00" routeLength="5.67" timeLoss="1.04" maxSpeed="1.43"/>
        <ride waitingTime="29.00" vehicle="bus.4" depart="34.00" arrival="70.00" arrivalPos="231.67" duration="36.00" routeLength="443.34" timeLoss="4.41"/>
        <walk depart="70.00" departPos="231.67" arrival="85.00" arrivalPos="250.00" duration="15.00" routeLength="18.33" timeLoss="1.80" maxSpeed="1.39"/>
    </personinfo>
    <personinfo id="p62" depart="0.00" type="DEFAULT_PEDTYPE">
        <walk depart="0.00" departPos="221.00" arrival="7.00" arrivalPos="226.67" duration="7.00" routeLength="5.67" timeLoss="3.35" maxSpeed="1.55"/>
        <ride waitingTime="27.00" vehicle="bus.3" depart="34.00" arrival="70.00" arrivalPos="231.67" duration="36.00" routeLength="443.33" timeLoss="4.41"/>
        <walk depart="70.00" departPos="231.67" arrival="85.00" arrivalPos="250.00" duration="15.00" routeLength="18.33" timeLoss="1.80" maxSpeed="1.39"/>
    </personinfo>
    <personinfo id="p43" depart="0.00" type="DEFAULT_PEDTYPE">
        <walk depart="0.00" departPos="221.00" arrival="6.00" arrivalPos="226.67" duration="6.00" routeLength="5.67" timeLoss="2.26" maxSpeed="1.52"/>
        <ride waitingTime="28.00" vehicle="bus.4" depart="34.00" arrival="70.00" arrivalPos="231.67" duration="36.00" routeLength="443.34" timeLoss="4.41"/>
        <walk depart="70.00" departPos="231.67" arrival="86.00" arrivalPos="250.00" duration="16.00" routeLength="18.33" timeLoss="2.80" maxSpeed="1.39"/>
    </personinfo>
    <personinfo id="p46" depart="0.00" type="DEFAULT_PEDTYPE">
        <walk depart="0.00" departPos="221.00" arrival="8.00" arrivalPos="226.67" duration="8.00" routeLength="5.67" timeLoss="4.25" maxSpeed="1.51"/>
        <ride waitingTime="26.00" vehicle="bus.4" depart="34.00" arrival="71.00" arrivalPos="231.67" duration="37.00" routeLength="443.34" timeLoss="4.41"/>
        <walk depart="71.00" departPos="231.67" arrival="86.00" arrivalPos="250.00" duration="15.00" routeLength="18.33" timeLoss="1.80" maxSpeed="1.39"/>
    </personinfo>
    <personinfo id="p66" depart="0.00" type="DEFAULT_PEDTYPE">
        <walk depart="0.00" departPos="221.00" arrival="9.00" arrivalPos="226.67" duration="9.00" routeLength="5.67" timeLoss="4.37" maxSpeed="1.23"/>
        <ride waitingTime="25.00" vehicle="bus.3" depart="34.00" arrival="70.00" arrivalPos="231.67" duration="36.00" routeLength="443.33" timeLoss="4.41"/>
        <walk depart="70.00" departPos="231.67" arrival="86.00" arrivalPos="250.00" duration="16.00" routeLength="18.33" timeLoss="2.80" maxSpeed="1.39"/>
    </personinfo>
    <personinfo id="p47" depart="0.00" type="DEFAULT_PEDTYPE">
        <walk depart="0.00" departPos="221.00" arrival="7.00" arrivalPos="226.67" duration="7.00" routeLength="5.67" timeLoss="2.91" maxSpeed="1.39"/>
        <ride waitingTime="27.00" vehicle="bus.4" depart="34.00" arrival="71.00" arrivalPos="231.67" duration="37.00" routeLength="443.34" timeLoss="4.41"/>
        <walk depart="71.00" departPos="231.67" arrival="87.00" arrivalPos="250.00" duration="16.00" routeLength="18.33" timeLoss="2.80" maxSpeed="1.39"/>
    </personinfo>
    <personinfo id="p49" depart="0.00" type="DEFAULT_PEDTYPE">
        <walk depart="0.00" departPos="221.00" arrival="8.00" arrivalPos="226.67" duration="8.00" routeLength="5.67" timeLoss="3.35" maxSpeed="1.22"/>
        <ride waitingTime="26.00" vehicle="bus.4" depart="34.00" arrival="72.00" arrivalPos="231.67" duration="38.00" routeLength="443.34" timeLoss="4.41"/>
        <walk depart="72.00" departPos="231.67" arrival="87.00" arrivalPos="250.00" duration="15.00" routeLength="18.33" timeLoss="1.80" maxSpeed="1.39"/>
    </personinfo>
    <personinfo id="p11" depart="0.00" type="DEFAULT_PEDTYPE">
        <walk depart="0.00" departPos="221.00" arrival="4.00" arrivalPos="226.67" duration="4.00" routeLength="5.67" timeLoss="0.26" maxSpeed="1.51"/>
        <ride waitingTime="47.00" vehicle="bus.0" depart="51.00" arrival="82.00" arrivalPos="231.67" duration="31.00" routeLength="443.34" timeLoss="4.41"/>
        <walk depart="82.00" departPos="231.67" arrival="97.00" arrivalPos="250.00" duration="15.00" routeLength="18.33" timeLoss="1.80" maxSpeed="1.39"/>
    </personinfo>
    <personinfo id="p14" depart="0.00" type="DEFAULT_PEDTYPE">
        <walk depart="0.00" departPos="221.00" arrival="7.00" arrivalPos="226.67" duration="7.00" routeLength="5.67" timeLoss="3.36" maxSpeed="1.56"/>
        <ride waitingTime="44.00" vehicle="bus.0" depart="51.00" arrival="82.00" arrivalPos="231.67" duration="31.00" routeLength="443.34" timeLoss="4.41"/>
        <walk depart="82.00" departPos="231.67" arrival="98.00" arrivalPos="250.00" duration="16.00" routeLength="18.33" timeLoss="2.80" maxSpeed="1.39"/>
    </personinfo>
    <personinfo id="p19" depart="0.00" type="DEFAULT_PEDTYPE">
        <walk depart="0.00" departPos="221.00" arrival="11.00" arrivalPos="226.67" duration="11.00" routeLength="5.67" timeLoss="6.64" maxSpeed="1.30"/>
        <ride waitingTime="40.00" vehicle="bus.0" depart="51.00" arrival="82.00" arrivalPos="231.67" duration="31.00" routeLength="443.34" timeLoss="4.41"/>
        <walk depart="82.00" departPos="231.67" arrival="98.00" arrivalPos="250.00" duration="16.00" routeLength="18.33" timeLoss="2.80" maxSpeed="1.39"/>
    </personinfo>
    <personinfo id="p101" depart="0.00" type="DEFAULT_PEDTYPE">
        <walk depart="0.00" departPos="221.00" arrival="5.00" arrivalPos="226.67" duration="5.00" routeLength="5.67" timeLoss="1.17" maxSpeed="1.48"/>
        <ride waitingTime="19.00" vehicle="bus.1" depart="24.00" arrival="95.00" arrivalPos="231.67" duration="71.00" routeLength="886.67" timeLoss="8.81"/>
        <walk depart="95.00" departPos="231.67" arrival="110.00" arrivalPos="250.00" duration="15.00" routeLength="18.33" timeLoss="1.80" maxSpeed="1.39"/>
    </personinfo>
    <personinfo id="p103" depart="0.00" type="DEFAULT_PEDTYPE">
        <walk depart="0.00" departPos="221.00" arrival="7.00" arrivalPos="226.67" duration="7.00" routeLength="5.67" timeLoss="2.78" maxSpeed="1.34"/>
        <ride waitingTime="17.00" vehicle="bus.1" depart="24.00" arrival="96.00" arrivalPos="231.67" duration="72.00" routeLength="886.67" timeLoss="8.81"/>
        <walk depart="96.00" departPos="231.67" arrival="111.00" arrivalPos="250.00" duration="15.00" routeLength="18.33" timeLoss="1.80" maxSpeed="1.39"/>
    </personinfo>
    <personinfo id="p105" depart="0.00" type="DEFAULT_PEDTYPE">
        <walk depart="0.00" departPos="221.00" arrival="8.00" arrivalPos="226.67" duration="8.00" routeLength="5.67" timeLoss="3.43" maxSpeed="1.24"/>
        <ride waitingTime="16.00" vehicle="bus.1" depart="24.00" arrival="96.00" arrivalPos="231.67" duration="72.00" routeLength="886.67" timeLoss="8.81"/>
        <walk depart="96.00" departPos="231.67" arrival="112.00" arrivalPos="250.00" duration="16.00" routeLength="18.33" timeLoss="2.80" maxSpeed="1.39"/>
    </personinfo>
    <personinfo id="p83" depart="0.00" type="DEFAULT_PEDTYPE">
        <walk depart="0.00" departPos="221.00" arrival="7.00" arrivalPos="226.67" duration="7.00" routeLength="5.67" timeLoss="2.99" maxSpeed="1.41"/>
        <ride waitingTime="27.00" vehicle="bus.2" depart="34.00" arrival="101.00" arrivalPos="231.67" duration="67.00" routeLength="886.66" timeLoss="8.81"/>
        <walk depart="101.00" departPos="231.67" arrival="116.00" arrivalPos="250.00" duration="15.00" routeLength="18.33" timeLoss="1.80" maxSpeed="1.39"/>
    </personinfo>
    <personinfo id="p88" depart="0.00" type="DEFAULT_PEDTYPE">
        <walk depart="0.00" departPos="221.00" arrival="10.00" arrivalPos="226.67" duration="10.00" routeLength="5.67" timeLoss="6.09" maxSpeed="1.45"/>
        <ride waitingTime="24.00" vehicle="bus.2" depart="34.00" arrival="101.00" arrivalPos="231.67" duration="67.00" routeLength="886.66" timeLoss="8.81"/>
        <walk depart="101.00" departPos="231.67" arrival="116.00" arrivalPos="250.00" duration="15.00" routeLength="18.33" timeLoss="1.80" maxSpeed="1.39"/>
    </personinfo>
    <personinfo id="p100" depart="0.00" type="DEFAULT_PEDTYPE">
        <walk depart="0.00" departPos="221.00" arrival="5.00" arrivalPos="226.67" duration="5.00" routeLength="5.67" timeLoss="1.28" maxSpeed="1.52"/>
        <ride waitingTime="65.00" vehicle="bus.2" depart="70.00" arrival="102.00" arrivalPos="231.67" duration="32.00" routeLength="443.33" timeLoss="4.41"/>
        <walk depart="102.00" departPos="231.67" arrival="117.00" arrivalPos="250.00" duration="15.00" routeLength="18.33" timeLoss="1.80" maxSpeed="1.39"/>
    </personinfo>
    <personinfo id="p27" depart="0.00" type="DEFAULT_PEDTYPE">
        <walk depart="0.00" departPos="221.00" arrival="9.00" arrivalPos="226.67" duration="9.00" routeLength="5.67" timeLoss="4.55" maxSpeed="1.27"/>
        <ride waitingTime="25.00" vehicle="bus.5" depart="34.00" arrival="111.00" arrivalPos="231.67" duration="77.00" routeLength="886.66" timeLoss="8.81"/>
        <walk depart="111.00" departPos="231.67" arrival="126.00" arrivalPos="250.00" duration="15.00" routeLength="18.33" timeLoss="1.80" maxSpeed="1.39"/>
    </personinfo>
    <personinfo id="p64" depart="0.00" type="DEFAULT_PEDTYPE">
        <walk depart="0.00" departPos="221.00" arrival="9.00" arrivalPos="226.67" duration="9.00" routeLength="5.67" timeLoss="4.86" maxSpeed="1.37"/>
        <ride waitingTime="25.00" vehicle="bus.3" depart="34.00" arrival="111.00" arrivalPos="231.67" duration="77.00" routeLength="886.67" timeLoss="8.81"/>
        <walk depart="111.00" departPos="231.67" arrival="126.00" arrivalPos="250.00" duration="15.00" routeLength="18.33" timeLoss="1.80" maxSpeed="1.39"/>
    </personinfo>
    <personinfo id="p28" depart="0.00" type="DEFAULT_PEDTYPE">
        <walk depart="0.00" departPos="221.00" arrival="9.00" arrivalPos="226.67" duration="9.00" routeLength="5.67" timeLoss="4.70" maxSpeed="1.32"/>
        <ride waitingTime="25.00" vehicle="bus.5" depart="34.00" arrival="111.00" arrivalPos="231.67" duration="77.00" routeLength="886.66" timeLoss="8.81"/>
        <walk depart="111.00" departPos="231.67" arrival="127.00" arrivalPos="250.00" duration="16.00" routeLength="18.33" timeLoss="2.80" maxSpeed="1.39"/>
    </personinfo>
    <personinfo id="p36" depart="0.00" type="DEFAULT_PEDTYPE">
        <walk depart="0.00" departPos="221.00" arrival="8.00" arrivalPos="226.67" duration="8.00" routeLength="5.67" timeLoss="4.00" maxSpeed="1.42"/>
        <ride waitingTime="72.00" vehicle="bus.5" depart="80.00" arrival="111.00" arrivalPos="231.67" duration="31.00" routeLength="443.33" timeLoss="4.41"/>
        <walk depart="111.00" departPos="231.67" arrival="127.00" arrivalPos="250.00" duration="16.00" routeLength="18.33" timeLoss="2.80" maxSpeed="1.39"/>
    </personinfo>
    <personinfo id="p42" depart="0.00" type="DEFAULT_PEDTYPE">
        <walk depart="0.00" departPos="221.00" arrival="6.00" arrivalPos="226.67" duration="6.00" routeLength="5.67" timeLoss="1.74" maxSpeed="1.33"/>
        <ride waitingTime="28.00" vehicle="bus.4" depart="34.00" arrival="112.00" arrivalPos="231.67" duration="78.00" routeLength="886.67" timeLoss="8.81"/>
        <walk depart="112.00" departPos="231.67" arrival="127.00" arrivalPos="250.00" duration="15.00" routeLength="18.33" timeLoss="1.80" maxSpeed="1.39"/>
    </personinfo>
    <personinfo id="p80" depart="0.00" type="DEFAULT_PEDTYPE">
        <walk depart="0.00" departPos="221.00" arrival="11.00" arrivalPos="226.67" duration="11.00" routeLength="5.67" timeLoss="7.24" maxSpeed="1.51"/>
        <ride waitingTime="69.00" vehicle="bus.3" depart="80.00" arrival="111.00" arrivalPos="231.67" duration="31.00" routeLength="443.34" timeLoss="4.41"/>
        <walk depart="111.00" departPos="231.67" arrival="127.00" arrivalPos="250.00" duration="16.00" routeLength="18.33" timeLoss="2.80" maxSpeed="1.39"/>
    </personinfo>
    <personinfo id="p37" depart="0.00" type="DEFAULT_PEDTYPE">
        <walk depart="0.00" departPos="221.00" arrival="8.00" arrivalPos="226.67" duration="8.00" routeLength="5.67" timeLoss="3.81" maxSpeed="1.35"/>
        <ride waitingTime="72.00" vehicle="bus.5" depart="80.00" arrival="112.00" arrivalPos="231.67" duration="32.00" routeLength="443.33" timeLoss="4.41"/>
        <walk depart="112.00" departPos="231.67" arrival="128.00" arrivalPos="250.00" duration="16.00" routeLength="18.33" timeLoss="2.80" maxSpeed="1.39"/>
    </personinfo>
    <personinfo id="p39" depart="0.00" type="DEFAULT_PEDTYPE">
        <walk depart="0.00" departPos="221.00" arrival="9.00" arrivalPos="226.67" duration="9.00" routeLength="5.67" timeLoss="5.30" maxSpeed="1.53"/>
        <ride waitingTime="71.00" vehicle="bus.5" depart="80.00" arrival="112.00" arrivalPos="231.67" duration="32.00" routeLength="443.33" timeLoss="4.41"/>
        <walk depart="112.00" departPos="231.67" arrival="128.00" arrivalPos="250.00" duration="16.00" routeLength="18.33" timeLoss="2.80" maxSpeed="1.39"/>
    </personinfo>
    <personinfo id="p45" depart="0.00" type="DEFAULT_PEDTYPE">
        <walk depart="0.00" departPos="221.00" arrival="9.00" arrivalPos="226.67" duration="9.00" routeLength="5.67" timeLoss="5.09" maxSpeed="1.45"/>
        <ride waitingTime="25.00" vehicle="bus.4" depart="34.00" arrival="112.00" arrivalPos="231.67" duration="78.00" routeLength="886.67" timeLoss="8.81"/>
        <walk depart="112.00" departPos="231.67" arrival="128.00" arrivalPos="250.00" duration="16.00" routeLength="18.33" timeLoss="2.80" maxSpeed="1.39"/>
    </personinfo>
    <personinfo id="p40" depart="0.00" type="DEFAULT_PEDTYPE">
        <walk depart="0.00" departPos="221.00" arrival="11.00" arrivalPos="226.67" duration="11.00" routeLength="5.67" timeLoss="6.47" maxSpeed="1.25"/>
        <ride waitingTime="69.00" vehicle="bus.5" depart="80.00" arrival="113.00" arrivalPos="231.67" duration="33.00" routeLength="443.33" timeLoss="4.41"/>
        <walk depart="113.00" departPos="231.67" arrival="129.00" arrivalPos="250.00" duration="16.00" routeLength="18.33" timeLoss="2.80" maxSpeed="1.39"/>
    </personinfo>
    <personinfo id="p38" depart="0.00" type="DEFAULT_PEDTYPE">
        <walk depart="0.00" departPos="221.00" arrival="10.00" arrivalPos="226.67" duration="10.00" routeLength="5.67" timeLoss="6.54" maxSpeed="1.64"/>
        <ride waitingTime="70.00" vehicle="bus.5" depart="80.00" arrival="113.00" arrivalPos="231.67" duration="33.00" routeLength="443.33" timeLoss="4.41"/>
        <walk depart="113.00" departPos="231.67" arrival="129.00" arrivalPos="250.00" duration="16.00" routeLength="18.33" timeLoss="2.80" maxSpeed="1.39"/>
    </personinfo>
    <personinfo id="p50" depart="0.00" type="DEFAULT_PEDTYPE">
        <walk depart="0.00" departPos="221.00" arrival="10.00" arrivalPos="226.67" duration="10.00" routeLength="5.67" timeLoss="5.20" maxSpeed="1.18"/>
        <ride waitingTime="24.00" vehicle="bus.4" depart="34.00" arrival="113.00" arrivalPos="231.67" duration="79.00" routeLength="886.67" timeLoss="8.81"/>
        <walk depart="113.00" departPos="231.67" arrival="129.00" arrivalPos="250.00" duration="16.00" routeLength="18.33" timeLoss="2.80" maxSpeed="1.39"/>
    </personinfo>
    <personinfo id="p12" depart="0.00" type="DEFAULT_PEDTYPE">
        <walk depart="0.00" departPos="221.00" arrival="5.00" arrivalPos="226.67" duration="5.00" routeLength="5.67" timeLoss="1.02" maxSpeed="1.43"/>
        <ride waitingTime="46.00" vehicle="bus.0" depart="51.00" arrival="116.00" arrivalPos="231.67" duration="65.00" routeLength="886.67" timeLoss="8.81"/>
        <walk depart="116.00" departPos="231.67" arrival="131.00" arrivalPos="250.00" duration="15.00" routeLength="18.33" timeLoss="1.80" maxSpeed="1.39"/>
    </personinfo>
    <personinfo id="p13" depart="0.00" type="DEFAULT_PEDTYPE">
        <walk depart="0.00" departPos="221.00" arrival="6.00" arrivalPos="226.67" duration="6.00" routeLength="5.67" timeLoss="2.10" maxSpeed="1.45"/>
        <ride waitingTime="45.00" vehicle="bus.0" depart="51.00" arrival="116.00" arrivalPos="231.67" duration="65.00" routeLength="886.67" timeLoss="8.81"/>
        <walk depart="116.00" departPos="231.67" arrival="132.00" arrivalPos="250.00" duration="16.00" routeLength="18.33" timeLoss="2.80" maxSpeed="1.39"/>
    </personinfo>
    <personinfo id="p113" depart="0.00" type="DEFAULT_PEDTYPE">
        <walk depart="0.00" departPos="221.00" arrival="6.00" arrivalPos="226.67" duration="6.00" routeLength="5.67" timeLoss="2.28" maxSpeed="1.53"/>
        <ride waitingTime="54.00" vehicle="bus.1" depart="60.00" arrival="129.00" arrivalPos="231.67" duration="69.00" routeLength="886.66" timeLoss="8.81"/>
        <walk depart="129.00" departPos="231.67" arrival="144.00" arrivalPos="250.00" duration="15.00" routeLength="18.33" timeLoss="1.80" maxSpeed="1.39"/>
    </personinfo>
    <personinfo id="p120" depart="0.00" type="DEFAULT_PEDTYPE">
        <walk depart="0.00" departPos="221.00" arrival="10.00" arrivalPos="226.67" duration="10.00" routeLength="5.67" timeLoss="6.19" maxSpeed="1.49"/>
        <ride waitingTime="50.00" vehicle="bus.1" depart="60.00" arrival="129.00" arrivalPos="231.67" duration="69.00" routeLength="886.66" timeLoss="8.81"/>
        <walk depart="129.00" departPos="231.67" arrival="145.00" arrivalPos="250.00" duration="16.00" routeLength="18.33" timeLoss="2.80" maxSpeed="1.39"/>
    </personinfo>
    <personinfo id="p2" depart="0.00" type="DEFAULT_PEDTYPE">
        <walk depart="0.00" departPos="221.00" arrival="6.00" arrivalPos="226.67" duration="6.00" routeLength="5.67" timeLoss="1.65" maxSpeed="1.30"/>
        <ride waitingTime="92.00" vehicle="bus.1" depart="98.00" arrival="130.00" arrivalPos="231.67" duration="32.00" routeLength="443.33" timeLoss="4.41"/>
        <walk depart="130.00" departPos="231.67" arrival="145.00" arrivalPos="250.00" duration="15.00" routeLength="18.33" timeLoss="1.80" maxSpeed="1.39"/>
    </personinfo>
    <personinfo id="p4" depart="0.00" type="DEFAULT_PEDTYPE">
        <walk depart="0.00" departPos="221.00" arrival="7.00" arrivalPos="226.67" duration="7.00" routeLength="5.67" timeLoss="3.23" maxSpeed="1.50"/>
        <ride waitingTime="91.00" vehicle="bus.1" depart="98.00" arrival="130.00" arrivalPos="231.67" duration="32.00" routeLength="443.33" timeLoss="4.41"/>
        <walk depart="130.00" departPos="231.67" arrival="146.00" arrivalPos="250.00" duration="16.00" routeLength="18.33" timeLoss="2.80" maxSpeed="1.39"/>
    </personinfo>
    <personinfo id="p6" depart="0.00" type="DEFAULT_PEDTYPE">
        <walk depart="0.00" departPos="221.00" arrival="9.00" arrivalPos="226.67" duration="9.00" routeLength="5.67" timeLoss="4.09" maxSpeed="1.15"/>
        <ride waitingTime="89.00" vehicle="bus.1" depart="98.00" arrival="131.00" arrivalPos="231.67" duration="33.00" routeLength="443.33" timeLoss="4.41"/>
        <walk depart="131.00" departPos="231.67" arrival="147.00" arrivalPos="250.00" duration="16.00" routeLength="18.33" timeLoss="2.80" maxSpeed="1.39"/>
    </personinfo>
    <personinfo id="p85" depart="0.00" type="DEFAULT_PEDTYPE">
        <walk depart="0.00" departPos="221.00" arrival="8.00" arrivalPos="226.67" duration="8.00" routeLength="5.67" timeLoss="4.44" maxSpeed="1.59"/>
        <ride waitingTime="26.00" vehicle="bus.2" depart="34.00" arrival="136.00" arrivalPos="231.67" duration="102.00" routeLength="1330.00" timeLoss="13.22"/>
        <walk depart="136.00" departPos="231.67" arrival="151.00" arrivalPos="250.00" duration="15.00" routeLength="18.33" timeLoss="1.80" maxSpeed="1.39"/>
    </personinfo>
    <personinfo id="p92" depart="0.00" type="DEFAULT_PEDTYPE">
        <walk depart="0.00" departPos="221.00" arrival="7.00" arrivalPos="226.67" duration="7.00" routeLength="5.67" timeLoss="2.42" maxSpeed="1.24"/>
        <ride waitingTime="63.00" vehicle="bus.2" depart="70.00" arrival="136.00" arrivalPos="231.67" duration="66.00" routeLength="886.67" timeLoss="8.81"/>
        <walk depart="136.00" departPos="231.67" arrival="152.00" arrivalPos="250.00" duration="16.00" routeLength="18.33" timeLoss="2.80" maxSpeed="1.39"/>
    </personinfo>
    <personinfo id="p98" depart="0.00" type="DEFAULT_PEDTYPE">
        <walk depart="0.00" departPos="221.00" arrival="10.00" arrivalPos="226.67" duration="10.00" routeLength="5.67" timeLoss="5.50" maxSpeed="1.26"/>
        <ride waitingTime="60.00" vehicle="bus.2" depart="70.00" arrival="137.00" arrivalPos="231.67" duration="67.00" routeLength="886.67" timeLoss="8.81"/>
        <walk depart="137.00" departPos="231.67" arrival="153.00" arrivalPos="250.00" duration="16.00" routeLength="18.33" timeLoss="2.80" maxSpeed="1.39"/>
    </personinfo>
    <personinfo id="p63" depart="0.00" type="DEFAULT_PEDTYPE">
        <walk depart="0.00" departPos="221.00" arrival="6.00" arrivalPos="226.67" duration="6.00" routeLength="5.67" timeLoss="1.98" maxSpeed="1.41"/>
        <ride waitingTime="28.00" vehicle="bus.3" depart="34.00" arrival="144.00" arrivalPos="231.67" duration="110.00" routeLength="1330.00" timeLoss="13.22"/>
        <walk depart="144.00" departPos="231.67" arrival="160.00" arrivalPos="250.00" duration="16.00" routeLength="18.33" timeLoss="2.80" maxSpeed="1.39"/>
    </personinfo>
    <personinfo id="p79" depart="0.00" type="DEFAULT_PEDTYPE">
        <walk depart="0.00" departPos="221.00" arrival="10.00" arrivalPos="226.67" duration="10.00" routeLength="5.67" timeLoss="5.95" maxSpeed="1.40"/>
        <ride waitingTime="70.00" vehicle="bus.3" depart="80.00" arrival="145.00" arrivalPos="231.67" duration="65.00" routeLength="886.67" timeLoss="8.81"/>
        <walk depart="145.00" departPos="231.67" arrival="160.00" arrivalPos="250.00" duration="15.00" routeLength="18.33" timeLoss="1.80" maxSpeed="1.39"/>
    </personinfo>
    <personinfo id="p16" depart="0.00" type="DEFAULT_PEDTYPE">
        <walk depart="0.00" departPos="221.00" arrival="8.00" arrivalPos="226.67" duration="8.00" routeLength="5.67" timeLoss="3.60" maxSpeed="1.29"/>
        <ride waitingTime="43.00" vehicle="bus.0" depart="51.00" arrival="150.00" arrivalPos="231.67" duration="99.00" routeLength="1330.00" timeLoss="13.22"/>
        <walk depart="150.00" departPos="231.67" arrival="165.00" arrivalPos="250.00" duration="15.00" routeLength="18.33" timeLoss="1.80" maxSpeed="1.39"/>
    </personinfo>
    <personinfo id="p18" depart="0.00" type="DEFAULT_PEDTYPE">
        <walk depart="0.00" departPos="221.00" arrival="9.00" arrivalPos="226.67" duration="9.00" routeLength="5.67" timeLoss="4.66" maxSpeed="1.31"/>
        <ride waitingTime="42.00" vehicle="bus.0" depart="51.00" arrival="150.00" arrivalPos="231.67" duration="99.00" routeLength="1330.00" timeLoss="13.22"/>
        <walk depart="150.00" departPos="231.67" arrival="166.00" arrivalPos="250.00" duration="16.00" routeLength="18.33" timeLoss="2.80" maxSpeed="1.39"/>
    </personinfo>
    <personinfo id="p22" depart="0.00" type="DEFAULT_PEDTYPE">
        <walk depart="0.00" departPos="221.00" arrival="6.00" arrivalPos="226.67" duration="6.00" routeLength="5.67" timeLoss="1.96" maxSpeed="1.40"/>
        <ride waitingTime="28.00" vehicle="bus.5" depart="34.00" arrival="158.00" arrivalPos="231.67" duration="124.00" routeLength="1330.00" timeLoss="13.22"/>
        <walk depart="158.00" departPos="231.67" arrival="173.00" arrivalPos="250.00" duration="15.00" routeLength="18.33" timeLoss="1.80" maxSpeed="1.39"/>
    </personinfo>
    <personinfo id="pStop4.0" depart="33.63" type="DEFAULT_PEDTYPE">
        <walk depart="34.00" departPos="200.00" arrival="55.00" arrivalPos="226.67" duration="21.00" routeLength="26.67" timeLoss="3.03" maxSpeed="1.48"/>
        <ride waitingTime="25.00" vehicle="bus.5" depart="80.00" arrival="158.00" arrivalPos="231.67" duration="78.00" routeLength="886.67" timeLoss="8.81"/>
        <walk depart="158.00" departPos="231.67" arrival="174.00" arrivalPos="250.00" duration="16.00" routeLength="18.33" timeLoss="2.80" maxSpeed="1.39"/>
    </personinfo>
    <personinfo id="p55" depart="0.00" type="DEFAULT_PEDTYPE">
        <walk depart="0.00" departPos="221.00" arrival="9.00" arrivalPos="226.67" duration="9.00" routeLength="5.67" timeLoss="4.93" maxSpeed="1.39"/>
        <ride waitingTime="71.00" vehicle="bus.4" depart="80.00" arrival="159.00" arrivalPos="231.67" duration="79.00" routeLength="886.66" timeLoss="8.81"/>
        <walk depart="159.00" departPos="231.67" arrival="174.00" arrivalPos="250.00" duration="15.00" routeLength="18.33" timeLoss="1.80" maxSpeed="1.39"/>
    </personinfo>
    <personinfo id="p102" depart="0.00" type="DEFAULT_PEDTYPE">
        <walk depart="0.00" departPos="221.00" arrival="6.00" arrivalPos="226.67" duration="6.00" routeLength="5.67" timeLoss="1.73" maxSpeed="1.33"/>
        <ride waitingTime="18.00" vehicle="bus.1" depart="24.00" arrival="163.00" arrivalPos="231.67" duration="139.00" routeLength="1773.34" timeLoss="17.62"/>
        <walk depart="163.00" departPos="231.67" arrival="178.00" arrivalPos="250.00" duration="15.00" routeLength="18.33" timeLoss="1.80" maxSpeed="1.39"/>
    </personinfo>
    <personinfo id="p108" depart="0.00" type="DEFAULT_PEDTYPE">
        <walk depart="0.00" departPos="221.00" arrival="11.00" arrivalPos="226.67" duration="11.00" routeLength="5.67" timeLoss="7.05" maxSpeed="1.44"/>
        <ride waitingTime="13.00" vehicle="bus.1" depart="24.00" arrival="164.00" arrivalPos="231.67" duration="140.00" routeLength="1773.34" timeLoss="17.62"/>
        <walk depart="164.00" departPos="231.67" arrival="179.00" arrivalPos="250.00" duration="15.00" routeLength="18.33" timeLoss="1.80" maxSpeed="1.39"/>
    </personinfo>
    <personinfo id="p111" depart="0.00" type="DEFAULT_PEDTYPE">
        <walk depart="0.00" departPos="221.00" arrival="5.00" arrivalPos="226.67" duration="5.00" routeLength="5.67" timeLoss="0.60" maxSpeed="1.29"/>
        <ride waitingTime="55.00" vehicle="bus.1" depart="60.00" arrival="164.00" arrivalPos="231.67" duration="104.00" routeLength="1330.00" timeLoss="13.22"/>
        <walk depart="164.00" departPos="231.67" arrival="180.00" arrivalPos="250.00" duration="16.00" routeLength="18.33" timeLoss="2.80" maxSpeed="1.39"/>
    </personinfo>
    <personinfo id="p1" depart="0.00" type="DEFAULT_PEDTYPE">
        <walk depart="0.00" departPos="221.00" arrival="5.00" arrivalPos="226.67" duration="5.00" routeLength="5.67" timeLoss="1.15" maxSpeed="1.47"/>
        <ride waitingTime="93.00" vehicle="bus.1" depart="98.00" arrival="165.00" arrivalPos="231.67" duration="67.00" routeLength="886.67" timeLoss="8.81"/>
        <walk depart="165.00" departPos="231.67" arrival="180.00" arrivalPos="250.00" duration="15.00" routeLength="18.33" timeLoss="1.80" maxSpeed="1.39"/>
    </personinfo>
    <personinfo id="p115" depart="0.00" type="DEFAULT_PEDTYPE">
        <walk depart="0.00" departPos="221.00" arrival="8.00" arrivalPos="226.67" duration="8.00" routeLength="5.67" timeLoss="4.28" maxSpeed="1.52"/>
        <ride waitingTime="52.00" vehicle="bus.1" depart="60.00" arrival="165.00" arrivalPos="231.67" duration="105.00" routeLength="1330.00" timeLoss="13.22"/>
        <walk depart="165.00" departPos="231.67" arrival="181.00" arrivalPos="250.00" duration="16.00" routeLength="18.33" timeLoss="2.80" maxSpeed="1.39"/>
    </personinfo>
    <personinfo id="p81" depart="0.00" type="DEFAULT_PEDTYPE">
        <walk depart="0.00" departPos="221.00" arrival="5.00" arrivalPos="226.67" duration="5.00" routeLength="5.67" timeLoss="1.05" maxSpeed="1.44"/>
        <ride waitingTime="29.00" vehicle="bus.2" depart="34.00" arrival="172.00" arrivalPos="231.67" duration="138.00" routeLength="1773.33" timeLoss="17.62"/>
        <walk depart="172.00" departPos="231.67" arrival="187.00" arrivalPos="250.00" duration="15.00" routeLength="18.33" timeLoss="1.80" maxSpeed="1.39"/>
    </personinfo>
    <personinfo id="p94" depart="0.00" type="DEFAULT_PEDTYPE">
        <walk depart="0.00" departPos="221.00" arrival="7.00" arrivalPos="226.67" duration="7.00" routeLength="5.67" timeLoss="2.57" maxSpeed="1.28"/>
        <ride waitingTime="63.00" vehicle="bus.2" depart="70.00" arrival="172.00" arrivalPos="231.67" duration="102.00" routeLength="1330.00" timeLoss="13.22"/>
        <walk depart="172.00" departPos="231.67" arrival="188.00" arrivalPos="250.00" duration="16.00" routeLength="18.33" timeLoss="2.80" maxSpeed="1.39"/>
    </personinfo>
    <personinfo id="p95" depart="0.00" type="DEFAULT_PEDTYPE">