<?xml version="1.0" encoding="UTF-8"?>

<!-- generated on 2022-11-13 23:33:21 by Eclipse SUMO GUI Version 1.14.1
<configuration xmlns:xsi="http://www.w3.org/2001/XMLSchema-instance" xsi:noNamespaceSchemaLocation="http://sumo.dlr.de/xsd/sumoConfiguration.xsd">

    <input>
        <net-file value="demo.net.xml"/>
        <additional-files value="demo.add.xml"/>
    </input>

    <output>
        <tripinfo-output value="tripinfo.xml"/>
    </output>

    <processing>
        <no-internal-links value="false"/>
    </processing>

    <traci_server>
        <remote-port value="50805"/>
    </traci_server>

</configuration>
-->

<tripinfos xmlns:xsi="http://www.w3.org/2001/XMLSchema-instance" xsi:noNamespaceSchemaLocation="http://sumo.dlr.de/xsd/tripinfo_file.xsd">
    <personinfo id="persons.0" depart="0.00" type="DEFAULT_PEDTYPE">
        <walk depart="0.00" departPos="0.00" arrival="14.00" arrivalPos="17.50" duration="14.00" routeLength="17.50" timeLoss="2.11" maxSpeed="1.47"/>
    </personinfo>
    <personinfo id="persons.1" depart="25.00" type="DEFAULT_PEDTYPE">
        <walk depart="25.00" departPos="0.00" arrival="40.00" arrivalPos="17.50" duration="15.00" routeLength="17.50" timeLoss="1.57" maxSpeed="1.30"/>
    </personinfo>
    <personinfo id="persons.2" depart="50.00" type="DEFAULT_PEDTYPE">
        <walk depart="50.00" departPos="0.00" arrival="64.00" arrivalPos="17.50" duration="14.00" routeLength="17.50" timeLoss="1.53" maxSpeed="1.40"/>
    </personinfo>
    <personinfo id="persons.3" depart="75.00" type="DEFAULT_PEDTYPE">
        <walk depart="75.00" departPos="0.00" arrival="88.00" arrivalPos="17.50" duration="13.00" routeLength="17.50" timeLoss="1.36" maxSpeed="1.50"/>
    </personinfo>
    <personinfo id="persons.4" depart="100.00" type="DEFAULT_PEDTYPE">
        <walk depart="100.00" departPos="0.00" arrival="114.00" arrivalPos="17.50" duration="14.00" routeLength="17.50" timeLoss="1.77" maxSpeed="1.43"/>
    </personinfo>
    <personinfo id="persons.5" depart="125.00" type="DEFAULT_PEDTYPE">
        <walk depart="125.00" departPos="0.00" arrival="142.00" arrivalPos="17.50" duration="17.00" routeLength="17.50" timeLoss="1.84" maxSpeed="1.15"/>
    </personinfo>
    <personinfo id="persons.6" depart="150.00" type="DEFAULT_PEDTYPE">
        <walk depart="150.00" departPos="0.00" arrival="164.00" arrivalPos="17.50" duration="14.00" routeLength="17.50" timeLoss="1.95" maxSpeed="1.45"/>
    </personinfo>
    <personinfo id="persons.7" depart="175.00" type="DEFAULT_PEDTYPE">
        <walk depart="175.00" departPos="0.00" arrival="191.00" arrivalPos="17.50" duration="16.00" routeLength="17.50" timeLoss="1.78" maxSpeed="1.23"/>
    </personinfo>
    <personinfo id="persons.8" depart="200.00" type="DEFAULT_PEDTYPE">
        <walk depart="200.00" departPos="0.00" arrival="215.00" arrivalPos="17.50" duration="15.00" routeLength="17.50" timeLoss="1.57" maxSpeed="1.30"/>
    </personinfo>
</tripinfos>
