<?xml version="1.0" encoding="UTF-8"?>

<!-- generated on 2023-03-08 23:55:29 by Eclipse SUMO GUI Version 1.14.1
<configuration xmlns:xsi="http://www.w3.org/2001/XMLSchema-instance" xsi:noNamespaceSchemaLocation="http://sumo.dlr.de/xsd/sumoConfiguration.xsd">

    <input>
        <net-file value="traffic/ring.net.xml"/>
        <additional-files value="traffic/ring.add.xml,traffic/persons.add.xml"/>
    </input>

    <output>
        <tripinfo-output value="tripinfo.xml"/>
    </output>

    <processing>
        <no-internal-links value="false"/>
    </processing>

    <report>
        <no-warnings value="true"/>
    </report>

    <traci_server>
        <remote-port value="53226"/>
    </traci_server>

</configuration>
-->

<tripinfos xmlns:xsi="http://www.w3.org/2001/XMLSchema-instance" xsi:noNamespaceSchemaLocation="http://sumo.dlr.de/xsd/tripinfo_file.xsd">
    <personinfo id="p83" depart="0.00" type="DEFAULT_PEDTYPE">
        <walk depart="0.00" departPos="221.00" arrival="7.00" arrivalPos="226.67" duration="7.00" routeLength="5.67" timeLoss="2.99" maxSpeed="1.41"/>
        <ride waitingTime="27.00" vehicle="bus.2" depart="34.00" arrival="69.00" arrivalPos="231.67" duration="35.00" routeLength="443.33" timeLoss="4.41"/>
        <walk depart="69.00" departPos="231.67" arrival="84.00" arrivalPos="250.00" duration="15.00" routeLength="18.33" timeLoss="1.80" maxSpeed="1.39"/>
    </personinfo>
    <personinfo id="p29" depart="0.00" type="DEFAULT_PEDTYPE">
        <walk depart="0.00" departPos="221.00" arrival="10.00" arrivalPos="226.67" duration="10.00" routeLength="5.67" timeLoss="6.39" maxSpeed="1.57"/>
        <ride waitingTime="24.00" vehicle="bus.5" depart="34.00" arrival="70.00" arrivalPos="231.67" duration="36.00" routeLength="443.33" timeLoss="4.41"/>
        <walk depart="70.00" departPos="231.67" arrival="85.00" arrivalPos="250.00" duration="15.00" routeLength="18.33" timeLoss="1.80" maxSpeed="1.39"/>
    </personinfo>
    <personinfo id="p46" depart="0.00" type="DEFAULT_PEDTYPE">
        <walk depart="0.00" departPos="221.00" arrival="6.00" arrivalPos="226.67" duration="6.00" routeLength="5.67" timeLoss="2.25" maxSpeed="1.51"/>
        <ride waitingTime="28.00" vehicle="bus.4" depart="34.00" arrival="70.00" arrivalPos="231.67" duration="36.00" routeLength="443.34" timeLoss="4.41"/>
        <walk depart="70.00" departPos="231.67" arrival="85.00" arrivalPos="250.00" duration="15.00" routeLength="18.33" timeLoss="1.80" maxSpeed="1.39"/>
    </personinfo>
    <personinfo id="p84" depart="0.00" type="DEFAULT_PEDTYPE">
        <walk depart="0.00" departPos="221.00" arrival="8.00" arrivalPos="226.67" duration="8.00" routeLength="5.67" timeLoss="3.78" maxSpeed="1.34"/>
        <ride waitingTime="26.00" vehicle="bus.2" depart="34.00" arrival="70.00" arrivalPos="231.67" duration="36.00" routeLength="443.33" timeLoss="4.41"/>
        <walk depart="70.00" departPos="231.67" arrival="85.00" arrivalPos="250.00" duration="15.00" routeLength="18.33" timeLoss="1.80" maxSpeed="1.39"/>
    </personinfo>
    <personinfo id="p64" depart="0.00" type="DEFAULT_PEDTYPE">
        <walk depart="0.00" departPos="221.00" arrival="9.00" arrivalPos="226.67" duration="9.00" routeLength="5.67" timeLoss="4.86" maxSpeed="1.37"/>
        <ride waitingTime="25.00" vehicle="bus.3" depart="34.00" arrival="70.00" arrivalPos="231.67" duration="36.00" routeLength="443.33" timeLoss="4.41"/>
        <walk depart="70.00" departPos="231.67" arrival="86.00" arrivalPos="250.00" duration="16.00" routeLength="18.33" timeLoss="2.80" maxSpeed="1.39"/>
    </personinfo>
    <personinfo id="p69" depart="0.00" type="DEFAULT_PEDTYPE">
        <walk depart="0.00" departPos="221.00" arrival="10.00" arrivalPos="226.67" duration="10.00" routeLength="5.67" timeLoss="6.08" maxSpeed="1.44"/>
        <ride waitingTime="24.00" vehicle="bus.3" depart="34.00" arrival="70.00" arrivalPos="231.67" duration="36.00" routeLength="443.33" timeLoss="4.41"/>
        <walk depart="70.00" departPos="231.67" arrival="86.00" arrivalPos="250.00" duration="16.00" routeLength="18.33" timeLoss="2.80" maxSpeed="1.39"/>
    </personinfo>
    <personinfo id="p14" depart="0.00" type="DEFAULT_PEDTYPE">
        <walk depart="0.00" departPos="221.00" arrival="7.00" arrivalPos="226.67" duration="7.00" routeLength="5.67" timeLoss="3.36" maxSpeed="1.56"/>
        <ride waitingTime="44.00" vehicle="bus.0" depart="51.00" arrival="82.00" arrivalPos="231.67" duration="31.00" routeLength="443.34" timeLoss="4.41"/>
        <walk depart="82.00" departPos="231.67" arrival="97.00" arrivalPos="250.00" duration="15.00" routeLength="18.33" timeLoss="1.80" maxSpeed="1.39"/>
    </personinfo>
    <personinfo id="p18" depart="0.00" type="DEFAULT_PEDTYPE">
        <walk depart="0.00" departPos="221.00" arrival="10.00" arrivalPos="226.67" duration="10.00" routeLength="5.67" timeLoss="5.66" maxSpeed="1.31"/>
        <ride waitingTime="41.00" vehicle="bus.0" depart="51.00" arrival="82.00" arrivalPos="231.67" duration="31.00" routeLength="443.34" timeLoss="4.41"/>
        <walk depart="82.00" departPos="231.67" arrival="98.00" arrivalPos="250.00" duration="16.00" routeLength="18.33" timeLoss="2.80" maxSpeed="1.39"/>
    </personinfo>
    <personinfo id="p104" depart="0.00" type="DEFAULT_PEDTYPE">
        <walk depart="0.00" departPos="221.00" arrival="8.00" arrivalPos="226.67" duration="8.00" routeLength="5.67" timeLoss="3.71" maxSpeed="1.32"/>
        <ride waitingTime="16.00" vehicle="bus.1" depart="24.00" arrival="95.00" arrivalPos="231.67" duration="71.00" routeLength="886.67" timeLoss="8.81"/>
        <walk depart="95.00" departPos="231.67" arrival="110.00" arrivalPos="250.00" duration="15.00" routeLength="18.33" timeLoss="1.80" maxSpeed="1.39"/>
    </personinfo>
    <personinfo id="p107" depart="0.00" type="DEFAULT_PEDTYPE">
        <walk depart="0.00" departPos="221.00" arrival="10.00" arrivalPos="226.67" duration="10.00" routeLength="5.67" timeLoss="5.97" maxSpeed="1.41"/>
        <ride waitingTime="14.00" vehicle="bus.1" depart="24.00" arrival="96.00" arrivalPos="231.67" duration="72.00" routeLength="886.67" timeLoss="8.81"/>
        <walk depart="96.00" departPos="231.67" arrival="111.00" arrivalPos="250.00" duration="15.00" routeLength="18.33" timeLoss="1.80" maxSpeed="1.39"/>
    </personinfo>
    <personinfo id="p120" depart="0.00" type="DEFAULT_PEDTYPE">
        <walk depart="0.00" departPos="221.00" arrival="10.00" arrivalPos="226.67" duration="10.00" routeLength="5.67" timeLoss="6.19" maxSpeed="1.49"/>
        <ride waitingTime="50.00" vehicle="bus.1" depart="60.00" arrival="96.00" arrivalPos="231.67" duration="36.00" routeLength="443.33" timeLoss="4.41"/>
        <walk depart="96.00" departPos="231.67" arrival="112.00" arrivalPos="250.00" duration="16.00" routeLength="18.33" timeLoss="2.80" maxSpeed="1.39"/>
    </personinfo>
    <personinfo id="p88" depart="0.00" type="DEFAULT_PEDTYPE">
        <walk depart="0.00" departPos="221.00" arrival="10.00" arrivalPos="226.67" duration="10.00" routeLength="5.67" timeLoss="6.09" maxSpeed="1.45"/>
        <ride waitingTime="24.00" vehicle="bus.2" depart="34.00" arrival="102.00" arrivalPos="231.67" duration="68.00" routeLength="886.66" timeLoss="8.81"/>
        <walk depart="102.00" departPos="231.67" arrival="117.00" arrivalPos="250.00" duration="15.00" routeLength="18.33" timeLoss="1.80" maxSpeed="1.39"/>
    </personinfo>
    <personinfo id="p21" depart="0.00" type="DEFAULT_PEDTYPE">
        <walk depart="0.00" departPos="221.00" arrival="5.00" arrivalPos="226.67" duration="5.00" routeLength="5.67" timeLoss="0.99" maxSpeed="1.41"/>
        <ride waitingTime="29.00" vehicle="bus.5" depart="34.00" arrival="111.00" arrivalPos="231.67" duration="77.00" routeLength="886.66" timeLoss="8.81"/>
        <walk depart="111.00" departPos="231.67" arrival="126.00" arrivalPos="250.00" duration="15.00" routeLength="18.33" timeLoss="1.80" maxSpeed="1.39"/>
    </personinfo>
    <personinfo id="p61" depart="0.00" type="DEFAULT_PEDTYPE">
        <walk depart="0.00" departPos="221.00" arrival="5.00" arrivalPos="226.67" duration="5.00" routeLength="5.67" timeLoss="1.23" maxSpeed="1.50"/>
        <ride waitingTime="29.00" vehicle="bus.3" depart="34.00" arrival="111.00" arrivalPos="231.67" duration="77.00" routeLength="886.67" timeLoss="8.81"/>
        <walk depart="111.00" departPos="231.67" arrival="126.00" arrivalPos="250.00" duration="15.00" routeLength="18.33" timeLoss="1.80" maxSpeed="1.39"/>
    </personinfo>
    <personinfo id="p65" depart="0.00" type="DEFAULT_PEDTYPE">
        <walk depart="0.00" departPos="221.00" arrival="7.00" arrivalPos="226.67" duration="7.00" routeLength="5.67" timeLoss="2.65" maxSpeed="1.30"/>
        <ride waitingTime="27.00" vehicle="bus.3" depart="34.00" arrival="111.00" arrivalPos="231.67" duration="77.00" routeLength="886.67" timeLoss="8.81"/>
        <walk depart="111.00" departPos="231.67" arrival="126.00" arrivalPos="250.00" duration="15.00" routeLength="18.33" timeLoss="1.80" maxSpeed="1.39"/>
    </personinfo>
    <personinfo id="p28" depart="0.00" type="DEFAULT_PEDTYPE">
        <walk depart="0.00" departPos="221.00" arrival="9.00" arrivalPos="226.67" duration="9.00" routeLength="5.67" timeLoss="4.70" maxSpeed="1.32"/>
        <ride waitingTime="25.00" vehicle="bus.5" depart="34.00" arrival="111.00" arrivalPos="231.67" duration="77.00" routeLength="886.66" timeLoss="8.81"/>
        <walk depart="111.00" departPos="231.67" arrival="127.00" arrivalPos="250.00" duration="16.00" routeLength="18.33" timeLoss="2.80" maxSpeed="1.39"/>
    </personinfo>
    <personinfo id="p32" depart="0.00" type="DEFAULT_PEDTYPE">
        <walk depart="0.00" departPos="221.00" arrival="5.00" arrivalPos="226.67" duration="5.00" routeLength="5.67" timeLoss="1.46" maxSpeed="1.60"/>
        <ride waitingTime="75.00" vehicle="bus.5" depart="80.00" arrival="111.00" arrivalPos="231.67" duration="31.00" routeLength="443.33" timeLoss="4.41"/>
        <walk depart="111.00" departPos="231.67" arrival="127.00" arrivalPos="250.00" duration="16.00" routeLength="18.33" timeLoss="2.80" maxSpeed="1.39"/>
    </personinfo>
    <personinfo id="p44" depart="0.00" type="DEFAULT_PEDTYPE">
        <walk depart="0.00" departPos="221.00" arrival="7.00" arrivalPos="226.67" duration="7.00" routeLength="5.67" timeLoss="3.07" maxSpeed="1.44"/>
        <ride waitingTime="27.00" vehicle="bus.4" depart="34.00" arrival="112.00" arrivalPos="231.67" duration="78.00" routeLength="886.67" timeLoss="8.81"/>
        <walk depart="112.00" departPos="231.67" arrival="127.00" arrivalPos="250.00" duration="15.00" routeLength="18.33" timeLoss="1.80" maxSpeed="1.39"/>
    </personinfo>
    <personinfo id="p67" depart="0.00" type="DEFAULT_PEDTYPE">
        <walk depart="0.00" departPos="221.00" arrival="9.00" arrivalPos="226.67" duration="9.00" routeLength="5.67" timeLoss="4.50" maxSpeed="1.26"/>
        <ride waitingTime="25.00" vehicle="bus.3" depart="34.00" arrival="111.00" arrivalPos="231.67" duration="77.00" routeLength="886.67" timeLoss="8.81"/>
        <walk depart="111.00" departPos="231.67" arrival="127.00" arrivalPos="250.00" duration="16.00" routeLength="18.33" timeLoss="2.80" maxSpeed="1.39"/>
    </personinfo>
    <personinfo id="pStop7.0" depart="9.04" type="DEFAULT_PEDTYPE">
        <walk depart="10.00" departPos="200.00" arrival="32.00" arrivalPos="226.67" duration="22.00" routeLength="26.67" timeLoss="2.09" maxSpeed="1.34"/>
        <ride waitingTime="2.00" vehicle="bus.3" depart="34.00" arrival="112.00" arrivalPos="231.67" duration="78.00" routeLength="886.67" timeLoss="8.81"/>
        <walk depart="112.00" departPos="231.67" arrival="127.00" arrivalPos="250.00" duration="15.00" routeLength="18.33" timeLoss="1.80" maxSpeed="1.39"/>
    </personinfo>
    <personinfo id="p40" depart="0.00" type="DEFAULT_PEDTYPE">
        <walk depart="0.00" departPos="221.00" arrival="9.00" arrivalPos="226.67" duration="9.00" routeLength="5.67" timeLoss="4.47" maxSpeed="1.25"/>
        <ride waitingTime="71.00" vehicle="bus.5" depart="80.00" arrival="112.00" arrivalPos="231.67" duration="32.00" routeLength="443.33" timeLoss="4.41"/>
        <walk depart="112.00" departPos="231.67" arrival="128.00" arrivalPos="250.00" duration="16.00" routeLength="18.33" timeLoss="2.80" maxSpeed="1.39"/>
    </personinfo>
    <personinfo id="pStop4.0" depart="33.63" type="DEFAULT_PEDTYPE">
        <walk depart="34.00" departPos="200.00" arrival="55.00" arrivalPos="226.67" duration="21.00" routeLength="26.67" timeLoss="3.03" maxSpeed="1.48"/>
        <ride waitingTime="25.00" vehicle="bus.5" depart="80.00" arrival="112.00" arrivalPos="231.67" duration="32.00" routeLength="443.33" timeLoss="4.41"/>
        <walk depart="112.00" departPos="231.67" arrival="128.00" arrivalPos="250.00" duration="16.00" routeLength="18.33" timeLoss="2.80" maxSpeed="1.39"/>
    </personinfo>
    <personinfo id="p58" depart="0.00" type="DEFAULT_PEDTYPE">
        <walk depart="0.00" departPos="221.00" arrival="7.00" arrivalPos="226.67" duration="7.00" routeLength="5.67" timeLoss="3.43" maxSpeed="1.59"/>
        <ride waitingTime="73.00" vehicle="bus.4" depart="80.00" arrival="112.00" arrivalPos="231.67" duration="32.00" routeLength="443.33" timeLoss="4.41"/>
        <walk depart="112.00" departPos="231.67" arrival="128.00" arrivalPos="250.00" duration="16.00" routeLength="18.33" timeLoss="2.80" maxSpeed="1.39"/>
    </personinfo>
    <personinfo id="p60" depart="0.00" type="DEFAULT_PEDTYPE">
        <walk depart="0.00" departPos="221.00" arrival="9.00" arrivalPos="226.67" duration="9.00" routeLength="5.67" timeLoss="4.79" maxSpeed="1.35"/>
        <ride waitingTime="71.00" vehicle="bus.4" depart="80.00" arrival="113.00" arrivalPos="231.67" duration="33.00" routeLength="443.33" timeLoss="4.41"/>
        <walk depart="113.00" departPos="231.67" arrival="128.00" arrivalPos="250.00" duration="15.00" routeLength="18.33" timeLoss="1.80" maxSpeed="1.39"/>
    </personinfo>
    <personinfo id="p79" depart="0.00" type="DEFAULT_PEDTYPE">
        <walk depart="0.00" departPos="221.00" arrival="8.00" arrivalPos="226.67" duration="8.00" routeLength="5.67" timeLoss="3.95" maxSpeed="1.40"/>
        <ride waitingTime="72.00" vehicle="bus.3" depart="80.00" arrival="113.00" arrivalPos="231.67" duration="33.00" routeLength="443.34" timeLoss="4.41"/>
        <walk depart="113.00" departPos="231.67" arrival="128.00" arrivalPos="250.00" duration="15.00" routeLength="18.33" timeLoss="1.80" maxSpeed="1.39"/>
    </personinfo>
    <personinfo id="pStop8.0" depart="9.91" type="DEFAULT_PEDTYPE">
        <walk depart="10.00" departPos="200.00" arrival="32.00" arrivalPos="226.67" duration="22.00" routeLength="26.67" timeLoss="2.53" maxSpeed="1.37"/>
        <ride waitingTime="48.00" vehicle="bus.3" depart="80.00" arrival="113.00" arrivalPos="231.67" duration="33.00" routeLength="443.34" timeLoss="4.41"/>
        <walk depart="113.00" departPos="231.67" arrival="129.00" arrivalPos="250.00" duration="16.00" routeLength="18.33" timeLoss="2.80" maxSpeed="1.39"/>
    </personinfo>
    <personinfo id="p13" depart="0.00" type="DEFAULT_PEDTYPE">
        <walk depart="0.00" departPos="221.00" arrival="6.00" arrivalPos="226.67" duration="6.00" routeLength="5.67" timeLoss="2.10" maxSpeed="1.45"/>
        <ride waitingTime="45.00" vehicle="bus.0" depart="51.00" arrival="115.00" arrivalPos="231.67" duration="64.00" routeLength="886.67" timeLoss="8.81"/>
        <walk depart="115.00" departPos="231.67" arrival="130.00" arrivalPos="250.00" duration="15.00" routeLength="18.33" timeLoss="1.80" maxSpeed="1.39"/>
    </personinfo>
    <personinfo id="p16" depart="0.00" type="DEFAULT_PEDTYPE">
        <walk depart="0.00" departPos="221.00" arrival="8.00" arrivalPos="226.67" duration="8.00" routeLength="5.67" timeLoss="3.60" maxSpeed="1.29"/>
        <ride waitingTime="43.00" vehicle="bus.0" depart="51.00" arrival="115.00" arrivalPos="231.67" duration="64.00" routeLength="886.67" timeLoss="8.81"/>
        <walk depart="115.00" departPos="231.67" arrival="131.00" arrivalPos="250.00" duration="16.00" routeLength="18.33" timeLoss="2.80" maxSpeed="1.39"/>
    </personinfo>
    <personinfo id="pStop2.1" depart="21.28" type="DEFAULT_PEDTYPE">
        <walk depart="22.00" departPos="200.00" arrival="43.00" arrivalPos="226.67" duration="21.00" routeLength="26.67" timeLoss="2.23" maxSpeed="1.42"/>
        <ride waitingTime="8.00" vehicle="bus.0" depart="51.00" arrival="115.00" arrivalPos="231.67" duration="64.00" routeLength="886.67" timeLoss="8.81"/>
        <walk depart="115.00" departPos="231.67" arrival="131.00" arrivalPos="250.00" duration="16.00" routeLength="18.33" timeLoss="2.80" maxSpeed="1.39"/>
    </personinfo>
    <personinfo id="p109" depart="0.00" type="DEFAULT_PEDTYPE">
        <walk depart="0.00" departPos="221.00" arrival="9.00" arrivalPos="226.67" duration="9.00" routeLength="5.67" timeLoss="5.17" maxSpeed="1.48"/>
        <ride waitingTime="15.00" vehicle="bus.1" depart="24.00" arrival="129.00" arrivalPos="231.67" duration="105.00" routeLength="1330.00" timeLoss="13.22"/>
        <walk depart="129.00" departPos="231.67" arrival="145.00" arrivalPos="250.00" duration="16.00" routeLength="18.33" timeLoss="2.80" maxSpeed="1.39"/>
    </personinfo>
    <personinfo id="p110" depart="0.00" type="DEFAULT_PEDTYPE">
        <walk depart="0.00" departPos="221.00" arrival="9.00" arrivalPos="226.67" duration="9.00" routeLength="5.67" timeLoss="4.75" maxSpeed="1.33"/>
        <ride waitingTime="15.00" vehicle="bus.1" depart="24.00" arrival="129.00" arrivalPos="231.67" duration="105.00" routeLength="1330.00" timeLoss="13.22"/>
        <walk depart="129.00" departPos="231.67" arrival="145.00" arrivalPos="250.00" duration="16.00" routeLength="18.33" timeLoss="2.80" maxSpeed="1.39"/>
    </personinfo>
    <personinfo id="p111" depart="0.00" type="DEFAULT_PEDTYPE">
        <walk depart="0.00" departPos="221.00" arrival="5.00" arrivalPos="226.67" duration="5.00" routeLength="5.67" timeLoss="0.60" maxSpeed="1.29"/>
        <ride waitingTime="55.00" vehicle="bus.1" depart="60.00" arrival="130.00" arrivalPos="231.67" duration="70.00" routeLength="886.66" timeLoss="8.81"/>
        <walk depart="130.00" departPos="231.67" arrival="146.00" arrivalPos="250.00" duration="16.00" routeLength="18.33" timeLoss="2.80" maxSpeed="1.39"/>
    </personinfo>
    <personinfo id="p119" depart="0.00" type="DEFAULT_PEDTYPE">
        <walk depart="0.00" departPos="221.00" arrival="9.00" arrivalPos="226.67" duration="9.00" routeLength="5.67" timeLoss="4.88" maxSpeed="1.38"/>
        <ride waitingTime="51.00" vehicle="bus.1" depart="60.00" arrival="130.00" arrivalPos="231.67" duration="70.00" routeLength="886.66" timeLoss="8.81"/>
        <walk depart="130.00" departPos="231.67" arrival="146.00" arrivalPos="250.00" duration="16.00" routeLength="18.33" timeLoss="2.80" maxSpeed="1.39"/>
    </personinfo>
    <personinfo id="p85" depart="0.00" type="DEFAULT_PEDTYPE">
        <walk depart="0.00" departPos="221.00" arrival="8.00" arrivalPos="226.67" duration="8.00" routeLength="5.67" timeLoss="4.44" maxSpeed="1.59"/>
        <ride waitingTime="26.00" vehicle="bus.2" depart="34.00" arrival="135.00" arrivalPos="231.67" duration="101.00" routeLength="1330.00" timeLoss="13.22"/>
        <walk depart="135.00" departPos="231.67" arrival="150.00" arrivalPos="250.00" duration="15.00" routeLength="18.33" timeLoss="1.80" maxSpeed="1.39"/>
    </personinfo>
    <personinfo id="p86" depart="0.00" type="DEFAULT_PEDTYPE">
        <walk depart="0.00" departPos="221.00" arrival="7.00" arrivalPos="226.67" duration="7.00" routeLength="5.67" timeLoss="2.82" maxSpeed="1.36"/>
        <ride waitingTime="27.00" vehicle="bus.2" depart="34.00" arrival="135.00" arrivalPos="231.67" duration="101.00" routeLength="1330.00" timeLoss="13.22"/>
        <walk depart="135.00" departPos="231.67" arrival="150.00" arrivalPos="250.00" duration="15.00" routeLength="18.33" timeLoss="1.80" maxSpeed="1.39"/>
    </personinfo>
    <personinfo id="p93" depart="0.00" type="DEFAULT_PEDTYPE">
        <walk depart="0.00" departPos="221.00" arrival="9.00" arrivalPos="226.67" duration="9.00" routeLength="5.67" timeLoss="4.10" maxSpeed="1.16"/>
        <ride waitingTime="62.00" vehicle="bus.2" depart="71.00" arrival="136.00" arrivalPos="231.67" duration="65.00" routeLength="886.67" timeLoss="8.81"/>
        <walk depart="136.00" departPos="231.67" arrival="151.00" arrivalPos="250.00" duration="15.00" routeLength="18.33" timeLoss="1.80" maxSpeed="1.39"/>
    </personinfo>
    <personinfo id="p95" depart="0.00" type="DEFAULT_PEDTYPE">
        <walk depart="0.00" departPos="221.00" arrival="8.00" arrivalPos="226.67" duration="8.00" routeLength="5.67" timeLoss="4.26" maxSpeed="1.52"/>
        <ride waitingTime="63.00" vehicle="bus.2" depart="71.00" arrival="136.00" arrivalPos="231.67" duration="65.00" routeLength="886.67" timeLoss="8.81"/>
        <walk depart="136.00" departPos="231.67" arrival="152.00" arrivalPos="250.00" duration="16.00" routeLength="18.33" timeLoss="2.80" maxSpeed="1.39"/>
    </personinfo>
    <personinfo id="p98" depart="0.00" type="DEFAULT_PEDTYPE">
        <walk depart="0.00" departPos="221.00" arrival="11.00" arrivalPos="226.67" duration="11.00" routeLength="5.67" timeLoss="6.50" maxSpeed="1.26"/>
        <ride waitingTime="60.00" vehicle="bus.2" depart="71.00" arrival="137.00" arrivalPos="231.67" duration="66.00" routeLength="886.67" timeLoss="8.81"/>
        <walk depart="137.00" departPos="231.67" arrival="153.00" arrivalPos="250.00" duration="16.00" routeLength="18.33" timeLoss="2.80" maxSpeed="1.39"/>
    </personinfo>
    <personinfo id="pStop11.0" depart="15.10" type="DEFAULT_PEDTYPE">
        <walk depart="16.00" departPos="200.00" arrival="38.00" arrivalPos="226.67" duration="22.00" routeLength="26.67" timeLoss="3.39" maxSpeed="1.43"/>
        <ride waitingTime="66.00" vehicle="bus.2" depart="104.00" arrival="137.00" arrivalPos="231.67" duration="33.00" routeLength="443.34" timeLoss="4.41"/>
        <walk depart="137.00" departPos="231.67" arrival="153.00" arrivalPos="250.00" duration="16.00" routeLength="18.33" timeLoss="2.80" maxSpeed="1.39"/>
    </personinfo>
    <personinfo id="p71" depart="0.00" type="DEFAULT_PEDTYPE">
        <walk depart="0.00" departPos="221.00" arrival="5.00" arrivalPos="226.67" duration="5.00" routeLength="5.67" timeLoss="1.01" maxSpeed="1.42"/>
        <ride waitingTime="75.00" vehicle="bus.3" depart="80.00" arrival="147.00" arrivalPos="231.67" duration="67.00" routeLength="886.67" timeLoss="8.81"/>
        <walk depart="147.00" departPos="231.67" arrival="162.00" arrivalPos="250.00" duration="15.00" routeLength="18.33" timeLoss="1.80" maxSpeed="1.39"/>
    </personinfo>
    <personinfo id="p20" depart="0.00" type="DEFAULT_PEDTYPE">
        <walk depart="0.00" departPos="221.00" arrival="9.00" arrivalPos="226.67" duration="9.00" routeLength="5.67" timeLoss="5.48" maxSpeed="1.61"/>
        <ride waitingTime="42.00" vehicle="bus.0" depart="51.00" arrival="148.00" arrivalPos="231.67" duration="97.00" routeLength="1330.00" timeLoss="13.22"/>
        <walk depart="148.00" departPos="231.67" arrival="163.00" arrivalPos="250.00" duration="15.00" routeLength="18.33" timeLoss="1.80" maxSpeed="1.39"/>
    </personinfo>
    <personinfo id="p77" depart="0.00" type="DEFAULT_PEDTYPE">
        <walk depart="0.00" departPos="221.00" arrival="7.00" arrivalPos="226.67" duration="7.00" routeLength="5.67" timeLoss="3.05" maxSpeed="1.43"/>
        <ride waitingTime="73.00" vehicle="bus.3" depart="80.00" arrival="147.00" arrivalPos="231.67" duration="67.00" routeLength="886.67" timeLoss="8.81"/>
        <walk depart="147.00" departPos="231.67" arrival="163.00" arrivalPos="250.00" duration="16.00" routeLength="18.33" timeLoss="2.80" maxSpeed="1.39"/>
    </personinfo>
    <personinfo id="p76" depart="0.00" type="DEFAULT_PEDTYPE">
        <walk depart="0.00" departPos="221.00" arrival="9.00" arrivalPos="226.67" duration="9.00" routeLength="5.67" timeLoss="4.86" maxSpeed="1.37"/>
        <ride waitingTime="71.00" vehicle="bus.3" depart="80.00" arrival="148.00" arrivalPos="231.67" duration="68.00" routeLength="886.67" timeLoss="8.81"/>
        <walk depart="148.00" departPos="231.67" arrival="163.00" arrivalPos="250.00" duration="15.00" routeLength="18.33" timeLoss="1.80" maxSpeed="1.39"/>
    </personinfo>
    <personinfo id="p23" depart="0.00" type="DEFAULT_PEDTYPE">
        <walk depart="0.00" departPos="221.00" arrival="7.00" arrivalPos="226.67" duration="7.00" routeLength="5.67" timeLoss="2.81" maxSpeed="1.35"/>
        <ride waitingTime="27.00" vehicle="bus.5" depart="34.00" arrival="158.00" arrivalPos="231.67" duration="124.00" routeLength="1330.00" timeLoss="13.22"/>
        <walk depart="158.00" departPos="231.67" arrival="173.00" arrivalPos="250.00" duration="15.00" routeLength="18.33" timeLoss="1.80" maxSpeed="1.39"/>
    </personinfo>
    <personinfo id="p24" depart="0.00" type="DEFAULT_PEDTYPE">
        <walk depart="0.00" departPos="221.00" arrival="7.00" arrivalPos="226.67" duration="7.00" routeLength="5.67" timeLoss="2.41" maxSpeed="1.24"/>
        <ride waitingTime="27.00" vehicle="bus.5" depart="34.00" arrival="158.00" arrivalPos="231.67" duration="124.00" routeLength="1330.00" timeLoss="13.22"/>
        <walk depart="158.00" departPos="231.67" arrival="174.00" arrivalPos="250.00" duration="16.00" routeLength="18.33" timeLoss="2.80" maxSpeed="1.39"/>
    </personinfo>
    <personinfo id="p25" depart="0.00" type="DEFAULT_PEDTYPE">
        <walk depart="0.00" departPos="221.00" arrival="8.00" arrivalPos="226.67" duration="8.00" routeLength="5.67" timeLoss="3.06" maxSpeed="1.15"/>
        <ride waitingTime="26.00" vehicle="bus.5" depart="34.00" arrival="159.00" arrivalPos="231.67" duration="125.00" routeLength="1330.00" timeLoss="13.22"/>
        <walk depart="159.00" departPos="231.67" arrival="174.00" arrivalPos="250.00" duration="15.00" routeLength="18.33" timeLoss="1.80" maxSpeed="1.39"/>
    </personinfo>
    <personinfo id="p41" depart="0.00" type="DEFAULT_PEDTYPE">
        <walk depart="0.00" departPos="221.00" arrival="5.00" arrivalPos="226.67" duration="5.00" routeLength="5.67" timeLoss="1.04" maxSpeed="1.43"/>
        <ride waitingTime="29.00" vehicle="bus.4" depart="34.00" arrival="159.00" arrivalPos="231.67" duration="125.00" routeLength="1330.00" timeLoss="13.22"/>
        <walk depart="159.00" departPos="231.67" arrival="174.00" arrivalPos="250.00" duration="15.00" routeLength="18.33" timeLoss="1.80" maxSpeed="1.39"/>
    </personinfo>
    <personinfo id="p39" depart="0.00" type="DEFAULT_PEDTYPE">
        <walk depart="0.00" departPos="221.00" arrival="11.00" arrivalPos="226.67" duration="11.00" routeLength="5.67" timeLoss="7.30" maxSpeed="1.53"/>
        <ride waitingTime="69.00" vehicle="bus.5" depart="80.00" arrival="159.00" arrivalPos="231.67" duration="79.00" routeLength="886.67" timeLoss="8.81"/>
        <walk depart="159.00" departPos="231.67" arrival="175.00" arrivalPos="250.00" duration="16.00" routeLength="18.33" timeLoss="2.80" maxSpeed="1.39"/>
    </personinfo>
    <personinfo id="pStop5.0" depart="101.98" type="DEFAULT_PEDTYPE">
        <walk depart="102.00" departPos="200.00" arrival="124.00" arrivalPos="226.67" duration="22.00" routeLength="26.67" timeLoss="2.49" maxSpeed="1.37"/>
        <ride waitingTime="2.00" vehicle="bus.5" depart="126.00" arrival="160.00" arrivalPos="231.67" duration="34.00" routeLength="443.34" timeLoss="4.41"/>
        <walk depart="160.00" departPos="231.67" arrival="175.00" arrivalPos="250.00" duration="15.00" routeLength="18.33" timeLoss="1.80" maxSpeed="1.39"/>
    </personinfo>
    <personinfo id="p42" depart="0.00" type="DEFAULT_PEDTYPE">
        <walk depart="0.00" departPos="221.00" arrival="6.00" arrivalPos="226.67" duration="6.00" routeLength="5.67" timeLoss="1.74" maxSpeed="1.33"/>
        <ride waitingTime="28.00" vehicle="bus.4" depart="34.00" arrival="160.00" arrivalPos="231.67" duration="126.00" routeLength="1330.00" timeLoss="13.22"/>
        <walk depart="160.00" departPos="231.67" arrival="175.00" arrivalPos="250.00" duration="15.00" routeLength="18.33" timeLoss="1.80" maxSpeed="1.39"/>
    </personinfo>
    <personinfo id="p49" depart="0.00" type="DEFAULT_PEDTYPE">
        <walk depart="0.00" departPos="221.00" arrival="11.00" arrivalPos="226.67" duration="11.00" routeLength="5.67" timeLoss="6.35" maxSpeed="1.22"/>
        <ride waitingTime="23.00" vehicle="bus.4" depart="34.00" arrival="160.00" arrivalPos="231.67" duration="126.00" routeLength="1330.00" timeLoss="13.22"/>
        <walk depart="160.00" departPos="231.67" arrival="176.00" arrivalPos="250.00" duration="16.00" routeLength="18.33" timeLoss="2.80" maxSpeed="1.39"/>
    </personinfo>
    <personinfo id="p55" depart="0.00" type="DEFAULT_PEDTYPE">
        <walk depart="0.00" departPos="221.00" arrival="8.00" arrivalPos="226.67" duration="8.00" routeLength="5.67" timeLoss="3.93" maxSpeed="1.39"/>
        <ride waitingTime="72.00" vehicle="bus.4" depart="80.00" arrival="161.00" arrivalPos="231.67" duration="81.00" routeLength="886.66" timeLoss="8.81"/>
        <walk depart="161.00" departPos="231.67" arrival="177.00" arrivalPos="250.00" duration="16.00" routeLength="18.33" timeLoss="2.80" maxSpeed="1.39"/>
    </personinfo>
    <personinfo id="p57" depart="0.00" type="DEFAULT_PEDTYPE">
        <walk depart="0.00" departPos="221.00" arrival="11.00" arrivalPos="226.67" duration="11.00" routeLength="5.67" timeLoss="6.46" maxSpeed="1.25"/>
        <ride waitingTime="69.00" vehicle="bus.4" depart="80.00" arrival="161.00" arrivalPos="231.67" duration="81.00" routeLength="886.66" timeLoss="8.81"/>
        <walk depart="161.00" departPos="231.67" arrival="177.00" arrivalPos="250.00" duration="16.00" routeLength="18.33" timeLoss="2.80" maxSpeed="1.39"/>
    </personinfo>