<?xml version="1.0" encoding="UTF-8"?>

<!-- generated on 2023-05-08 17:20:02 by Eclipse SUMO GUI Version 1.14.1
<configuration xmlns:xsi="http://www.w3.org/2001/XMLSchema-instance" xsi:noNamespaceSchemaLocation="http://sumo.dlr.de/xsd/sumoConfiguration.xsd">

    <input>
        <net-file value="sumo/bunched/ring.net.xml"/>
        <additional-files value="sumo/bunched/ring.add.xml,sumo/bunched/persons.add.xml"/>
    </input>

    <output>
        <tripinfo-output value="tripinfo.xml"/>
    </output>

    <processing>
        <no-internal-links value="false"/>
        <lanechange.overtake-right value="true"/>
    </processing>

    <report>
        <no-warnings value="true"/>
    </report>

    <traci_server>
        <remote-port value="52125"/>
    </traci_server>

</configuration>
-->

<tripinfos xmlns:xsi="http://www.w3.org/2001/XMLSchema-instance" xsi:noNamespaceSchemaLocation="http://sumo.dlr.de/xsd/tripinfo_file.xsd">
    <personinfo id="p7" depart="0.00" type="DEFAULT_PEDTYPE">
        <walk depart="0.00" departPos="221.00" arrival="8.00" arrivalPos="226.67" duration="8.00" routeLength="5.67" timeLoss="4.10" maxSpeed="1.45"/>
        <ride waitingTime="32.00" vehicle="bus.1" depart="40.00" arrival="73.00" arrivalPos="231.67" duration="33.00" routeLength="443.33" timeLoss="5.83"/>
        <walk depart="73.00" departPos="231.67" arrival="88.00" arrivalPos="250.00" duration="15.00" routeLength="18.33" timeLoss="1.80" maxSpeed="1.39"/>
    </personinfo>
    <personinfo id="p35" depart="0.00" type="DEFAULT_PEDTYPE">
        <walk depart="0.00" departPos="221.00" arrival="6.00" arrivalPos="226.67" duration="6.00" routeLength="5.67" timeLoss="1.90" maxSpeed="1.38"/>
        <ride waitingTime="99.00" vehicle="bus.0" depart="105.00" arrival="138.00" arrivalPos="231.67" duration="33.00" routeLength="443.33" timeLoss="5.83"/>
        <walk depart="138.00" departPos="231.67" arrival="154.00" arrivalPos="250.00" duration="16.00" routeLength="18.33" timeLoss="2.80" maxSpeed="1.39"/>
    </personinfo>
    <personinfo id="p39" depart="0.00" type="DEFAULT_PEDTYPE">
        <walk depart="0.00" departPos="221.00" arrival="9.00" arrivalPos="226.67" duration="9.00" routeLength="5.67" timeLoss="5.30" maxSpeed="1.53"/>
        <ride waitingTime="96.00" vehicle="bus.0" depart="105.00" arrival="138.00" arrivalPos="231.67" duration="33.00" routeLength="443.33" timeLoss="5.83"/>
        <walk depart="138.00" departPos="231.67" arrival="154.00" arrivalPos="250.00" duration="16.00" routeLength="18.33" timeLoss="2.80" maxSpeed="1.39"/>
    </personinfo>
    <personinfo id="pStop4.0" depart="33.63" type="DEFAULT_PEDTYPE">
        <walk depart="34.00" departPos="200.00" arrival="55.00" arrivalPos="226.67" duration="21.00" routeLength="26.67" timeLoss="3.03" maxSpeed="1.48"/>
        <ride waitingTime="50.00" vehicle="bus.0" depart="105.00" arrival="139.00" arrivalPos="231.67" duration="34.00" routeLength="443.33" timeLoss="5.83"/>
        <walk depart="139.00" departPos="231.67" arrival="155.00" arrivalPos="250.00" duration="16.00" routeLength="18.33" timeLoss="2.80" maxSpeed="1.39"/>
    </personinfo>
    <personinfo id="p1" depart="0.00" type="DEFAULT_PEDTYPE">
        <walk depart="0.00" departPos="221.00" arrival="5.00" arrivalPos="226.67" duration="5.00" routeLength="5.67" timeLoss="1.15" maxSpeed="1.47"/>
        <ride waitingTime="35.00" vehicle="bus.1" depart="40.00" arrival="149.00" arrivalPos="231.67" duration="109.00" routeLength="1773.33" timeLoss="13.33"/>
        <walk depart="149.00" departPos="231.67" arrival="164.00" arrivalPos="250.00" duration="15.00" routeLength="18.33" timeLoss="1.80" maxSpeed="1.39"/>
    </personinfo>
    <personinfo id="p6" depart="0.00" type="DEFAULT_PEDTYPE">
        <walk depart="0.00" departPos="221.00" arrival="9.00" arrivalPos="226.67" duration="9.00" routeLength="5.67" timeLoss="4.09" maxSpeed="1.15"/>
        <ride waitingTime="31.00" vehicle="bus.1" depart="40.00" arrival="149.00" arrivalPos="231.67" duration="109.00" routeLength="1773.33" timeLoss="13.33"/>
        <walk depart="149.00" departPos="231.67" arrival="165.00" arrivalPos="250.00" duration="16.00" routeLength="18.33" timeLoss="2.80" maxSpeed="1.39"/>
    </personinfo>
    <personinfo id="pStop2.0" depart="1.58" type="DEFAULT_PEDTYPE">
        <walk depart="2.00" departPos="200.00" arrival="21.00" arrivalPos="226.67" duration="19.00" routeLength="26.67" timeLoss="2.40" maxSpeed="1.61"/>
        <ride waitingTime="54.00" vehicle="bus.1" depart="75.00" arrival="149.00" arrivalPos="231.67" duration="74.00" routeLength="1330.00" timeLoss="7.50"/>
        <walk depart="149.00" departPos="231.67" arrival="165.00" arrivalPos="250.00" duration="16.00" routeLength="18.33" timeLoss="2.80" maxSpeed="1.39"/>
    </personinfo>
    <personinfo id="pStop2.2" depart="62.48" type="DEFAULT_PEDTYPE">
        <walk depart="63.00" departPos="200.00" arrival="84.00" arrivalPos="226.67" duration="21.00" routeLength="26.67" timeLoss="2.71" maxSpeed="1.46"/>
        <ride waitingTime="27.00" vehicle="bus.4" depart="111.00" arrival="180.00" arrivalPos="231.67" duration="69.00" routeLength="886.67" timeLoss="24.67"/>
        <walk depart="180.00" departPos="231.67" arrival="195.00" arrivalPos="250.00" duration="15.00" routeLength="18.33" timeLoss="1.80" maxSpeed="1.39"/>
    </personinfo>
    <personinfo id="p22" depart="0.00" type="DEFAULT_PEDTYPE">
        <walk depart="0.00" departPos="221.00" arrival="6.00" arrivalPos="226.67" duration="6.00" routeLength="5.67" timeLoss="1.96" maxSpeed="1.40"/>
        <ride waitingTime="124.00" vehicle="bus.2" depart="130.00" arrival="181.00" arrivalPos="231.67" duration="51.00" routeLength="886.66" timeLoss="6.67"/>
        <walk depart="181.00" departPos="231.67" arrival="196.00" arrivalPos="250.00" duration="15.00" routeLength="18.33" timeLoss="1.80" maxSpeed="1.39"/>
    </personinfo>
    <personinfo id="p24" depart="0.00" type="DEFAULT_PEDTYPE">
        <walk depart="0.00" departPos="221.00" arrival="8.00" arrivalPos="226.67" duration="8.00" routeLength="5.67" timeLoss="3.41" maxSpeed="1.24"/>
        <ride waitingTime="122.00" vehicle="bus.2" depart="130.00" arrival="181.00" arrivalPos="231.67" duration="51.00" routeLength="886.66" timeLoss="6.67"/>
        <walk depart="181.00" departPos="231.67" arrival="197.00" arrivalPos="250.00" duration="16.00" routeLength="18.33" timeLoss="2.80" maxSpeed="1.39"/>
    </personinfo>
    <personinfo id="p28" depart="0.00" type="DEFAULT_PEDTYPE">
        <walk depart="0.00" departPos="221.00" arrival="9.00" arrivalPos="226.67" duration="9.00" routeLength="5.67" timeLoss="4.70" maxSpeed="1.32"/>
        <ride waitingTime="121.00" vehicle="bus.2" depart="130.00" arrival="181.00" arrivalPos="231.67" duration="51.00" routeLength="886.66" timeLoss="6.67"/>
        <walk depart="181.00" departPos="231.67" arrival="197.00" arrivalPos="250.00" duration="16.00" routeLength="18.33" timeLoss="2.80" maxSpeed="1.39"/>
    </personinfo>
    <personinfo id="p29" depart="0.00" type="DEFAULT_PEDTYPE">
        <walk depart="0.00" departPos="221.00" arrival="11.00" arrivalPos="226.67" duration="11.00" routeLength="5.67" timeLoss="7.39" maxSpeed="1.57"/>
        <ride waitingTime="119.00" vehicle="bus.2" depart="130.00" arrival="182.00" arrivalPos="231.67" duration="52.00" routeLength="886.66" timeLoss="6.67"/>
        <walk depart="182.00" departPos="231.67" arrival="197.00" arrivalPos="250.00" duration="15.00" routeLength="18.33" timeLoss="1.80" maxSpeed="1.39"/>
    </personinfo>
    <personinfo id="pStop3.0" depart="62.97" type="DEFAULT_PEDTYPE">
        <walk depart="63.00" departPos="200.00" arrival="85.00" arrivalPos="226.67" duration="22.00" routeLength="26.67" timeLoss="2.08" maxSpeed="1.34"/>
        <ride waitingTime="45.00" vehicle="bus.2" depart="130.00" arrival="182.00" arrivalPos="231.67" duration="52.00" routeLength="886.66" timeLoss="6.67"/>
        <walk depart="182.00" departPos="231.67" arrival="198.00" arrivalPos="250.00" duration="16.00" routeLength="18.33" timeLoss="2.80" maxSpeed="1.39"/>
    </personinfo>
    <personinfo id="p4" depart="0.00" type="DEFAULT_PEDTYPE">
        <walk depart="0.00" departPos="221.00" arrival="7.00" arrivalPos="226.67" duration="7.00" routeLength="5.67" timeLoss="3.23" maxSpeed="1.50"/>
        <ride waitingTime="33.00" vehicle="bus.1" depart="40.00" arrival="202.00" arrivalPos="231.67" duration="162.00" routeLength="2216.67" timeLoss="19.17"/>
        <walk depart="202.00" departPos="231.67" arrival="217.00" arrivalPos="250.00" duration="15.00" routeLength="18.33" timeLoss="1.80" maxSpeed="1.39"/>
    </personinfo>
    <personinfo id="p8" depart="0.00" type="DEFAULT_PEDTYPE">
        <walk depart="0.00" departPos="221.00" arrival="10.00" arrivalPos="226.67" duration="10.00" routeLength="5.67" timeLoss="5.39" maxSpeed="1.23"/>
        <ride waitingTime="30.00" vehicle="bus.1" depart="40.00" arrival="203.00" arrivalPos="231.67" duration="163.00" routeLength="2216.67" timeLoss="19.17"/>
        <walk depart="203.00" departPos="231.67" arrival="218.00" arrivalPos="250.00" duration="15.00" routeLength="18.33" timeLoss="1.80" maxSpeed="1.39"/>
    </personinfo>
    <personinfo id="p44" depart="0.00" type="DEFAULT_PEDTYPE">
        <walk depart="0.00" departPos="221.00" arrival="5.00" arrivalPos="226.67" duration="5.00" routeLength="5.67" timeLoss="1.07" maxSpeed="1.44"/>
        <ride waitingTime="136.00" vehicle="bus.0" depart="141.00" arrival="243.00" arrivalPos="231.67" duration="102.00" routeLength="1773.34" timeLoss="8.33"/>
        <walk depart="243.00" departPos="231.67" arrival="258.00" arrivalPos="250.00" duration="15.00" routeLength="18.33" timeLoss="1.80" maxSpeed="1.39"/>
    </personinfo>
    <personinfo id="p46" depart="0.00" type="DEFAULT_PEDTYPE">
        <walk depart="0.00" departPos="221.00" arrival="8.00" arrivalPos="226.67" duration="8.00" routeLength="5.67" timeLoss="4.25" maxSpeed="1.51"/>
        <ride waitingTime="133.00" vehicle="bus.0" depart="141.00" arrival="244.00" arrivalPos="231.67" duration="103.00" routeLength="1773.34" timeLoss="8.33"/>
        <walk depart="244.00" departPos="231.67" arrival="259.00" arrivalPos="250.00" duration="15.00" routeLength="18.33" timeLoss="1.80" maxSpeed="1.39"/>
    </personinfo>
    <personinfo id="pStop5.0" depart="101.98" type="DEFAULT_PEDTYPE">
        <walk depart="102.00" departPos="200.00" arrival="124.00" arrivalPos="226.67" duration="22.00" routeLength="26.67" timeLoss="2.49" maxSpeed="1.37"/>
        <ride waitingTime="17.00" vehicle="bus.0" depart="141.00" arrival="244.00" arrivalPos="231.67" duration="103.00" routeLength="1773.34" timeLoss="8.33"/>
        <walk depart="244.00" departPos="231.67" arrival="260.00" arrivalPos="250.00" duration="16.00" routeLength="18.33" timeLoss="2.80" maxSpeed="1.39"/>
    </personinfo>
    <personinfo id="p10" depart="0.00" type="DEFAULT_PEDTYPE">
        <walk depart="0.00" departPos="221.00" arrival="6.00" arrivalPos="226.67" duration="6.00" routeLength="5.67" timeLoss="1.24" maxSpeed="1.19"/>
        <ride waitingTime="34.00" vehicle="bus.1" depart="40.00" arrival="256.00" arrivalPos="231.67" duration="216.00" routeLength="2660.00" timeLoss="25.00"/>
        <walk depart="256.00" departPos="231.67" arrival="271.00" arrivalPos="250.00" duration="15.00" routeLength="18.33" timeLoss="1.80" maxSpeed="1.39"/>
    </personinfo>
    <personinfo id="p2" depart="0.00" type="DEFAULT_PEDTYPE">
        <walk depart="0.00" departPos="221.00" arrival="6.00" arrivalPos="226.67" duration="6.00" routeLength="5.67" timeLoss="1.65" maxSpeed="1.30"/>
        <ride waitingTime="34.00" vehicle="bus.1" depart="40.00" arrival="256.00" arrivalPos="231.67" duration="216.00" routeLength="2660.00" timeLoss="25.00"/>
        <walk depart="256.00" departPos="231.67" arrival="272.00" arrivalPos="250.00" duration="16.00" routeLength="18.33" timeLoss="2.80" maxSpeed="1.39"/>
    </personinfo>
    <personinfo id="p12" depart="0.00" type="DEFAULT_PEDTYPE">
        <walk depart="0.00" departPos="221.00" arrival="5.00" arrivalPos="226.67" duration="5.00" routeLength="5.67" timeLoss="1.02" maxSpeed="1.43"/>
        <ride waitingTime="70.00" vehicle="bus.1" depart="75.00" arrival="257.00" arrivalPos="231.67" duration="182.00" routeLength="2216.67" timeLoss="19.17"/>
        <walk depart="257.00" departPos="231.67" arrival="272.00" arrivalPos="250.00" duration="15.00" routeLength="18.33" timeLoss="1.80" maxSpeed="1.39"/>
    </personinfo>
    <personinfo id="p3" depart="0.00" type="DEFAULT_PEDTYPE">
        <walk depart="0.00" departPos="221.00" arrival="7.00" arrivalPos="226.67" duration="7.00" routeLength="5.67" timeLoss="2.96" maxSpeed="1.40"/>
        <ride waitingTime="33.00" vehicle="bus.1" depart="40.00" arrival="257.00" arrivalPos="231.67" duration="217.00" routeLength="2660.00" timeLoss="25.00"/>
        <walk depart="257.00" departPos="231.67" arrival="273.00" arrivalPos="250.00" duration="16.00" routeLength="18.33" timeLoss="2.80" maxSpeed="1.39"/>
    </personinfo>
    <personinfo id="p14" depart="0.00" type="DEFAULT_PEDTYPE">
        <walk depart="0.00" departPos="221.00" arrival="7.00" arrivalPos="226.67" duration="7.00" routeLength="5.67" timeLoss="3.36" maxSpeed="1.56"/>
        <ride waitingTime="68.00" vehicle="bus.1" depart="75.00" arrival="258.00" arrivalPos="231.67" duration="183.00" routeLength="2216.67" timeLoss="19.17"/>
        <walk depart="258.00" departPos="231.67" arrival="273.00" arrivalPos="250.00" duration="15.00" routeLength="18.33" timeLoss="1.80" maxSpeed="1.39"/>
    </personinfo>
    <personinfo id="p20" depart="0.00" type="DEFAULT_PEDTYPE">
        <walk depart="0.00" departPos="221.00" arrival="9.00" arrivalPos="226.67" duration="9.00" routeLength="5.67" timeLoss="5.48" maxSpeed="1.61"/>
        <ride waitingTime="66.00" vehicle="bus.1" depart="75.00" arrival="258.00" arrivalPos="231.67" duration="183.00" routeLength="2216.67" timeLoss="19.17"/>
        <walk depart="258.00" departPos="231.67" arrival="274.00" arrivalPos="250.00" duration="16.00" routeLength="18.33" timeLoss="2.80" maxSpeed="1.39"/>
    </personinfo>
    <personinfo id="p57" depart="0.00" type="DEFAULT_PEDTYPE">
        <walk depart="0.00" departPos="221.00" arrival="10.00" arrivalPos="226.67" duration="10.00" routeLength="5.67" timeLoss="5.46" maxSpeed="1.25"/>
        <ride waitingTime="205.00" vehicle="bus.1" depart="215.00" arrival="259.00" arrivalPos="231.67" duration="44.00" routeLength="443.33" timeLoss="5.83"/>
        <walk depart="259.00" departPos="231.67" arrival="275.00" arrivalPos="250.00" duration="16.00" routeLength="18.33" timeLoss="2.80" maxSpeed="1.39"/>
    </personinfo>
    <personinfo id="pStop5.3" depart="129.64" type="DEFAULT_PEDTYPE">
        <walk depart="130.00" departPos="200.00" arrival="153.00" arrivalPos="226.67" duration="23.00" routeLength="26.67" timeLoss="2.90" maxSpeed="1.33"/>
        <ride waitingTime="13.00" vehicle="bus.1" depart="166.00" arrival="259.00" arrivalPos="231.67" duration="93.00" routeLength="886.67" timeLoss="11.67"/>
        <walk depart="259.00" departPos="231.67" arrival="275.00" arrivalPos="250.00" duration="16.00" routeLength="18.33" timeLoss="2.80" maxSpeed="1.39"/>
    </personinfo>
    <personinfo id="pStop6.3" depart="126.56" type="DEFAULT_PEDTYPE">
        <walk depart="127.00" departPos="200.00" arrival="153.00" arrivalPos="226.67" duration="26.00" routeLength="26.67" timeLoss="2.80" maxSpeed="1.15"/>
        <ride waitingTime="62.00" vehicle="bus.1" depart="215.00" arrival="260.00" arrivalPos="231.67" duration="45.00" routeLength="443.33" timeLoss="5.83"/>
        <walk depart="260.00" departPos="231.67" arrival="276.00" arrivalPos="250.00" duration="16.00" routeLength="18.33" timeLoss="2.80" maxSpeed="1.39"/>
    </personinfo>
    <personinfo id="p26" depart="0.00" type="DEFAULT_PEDTYPE">
        <walk depart="0.00" departPos="221.00" arrival="9.00" arrivalPos="226.67" duration="9.00" routeLength="5.67" timeLoss="4.32" maxSpeed="1.21"/>
        <ride waitingTime="121.00" vehicle="bus.2" depart="130.00" arrival="271.00" arrivalPos="231.67" duration="141.00" routeLength="1773.33" timeLoss="18.33"/>
        <walk depart="271.00" departPos="231.67" arrival="286.00" arrivalPos="250.00" duration="15.00" routeLength="18.33" timeLoss="1.80" maxSpeed="1.39"/>
    </personinfo>
    <personinfo id="p30" depart="0.00" type="DEFAULT_PEDTYPE">
        <walk depart="0.00" departPos="221.00" arrival="10.00" arrivalPos="226.67" duration="10.00" routeLength="5.67" timeLoss="5.62" maxSpeed="1.29"/>
        <ride waitingTime="120.00" vehicle="bus.2" depart="130.00" arrival="271.00" arrivalPos="231.67" duration="141.00" routeLength="1773.33" timeLoss="18.33"/>
        <walk depart="271.00" departPos="231.67" arrival="287.00" arrivalPos="250.00" duration="16.00" routeLength="18.33" timeLoss="2.80" maxSpeed="1.39"/>
    </personinfo>
    <tripinfo id="car30.0" depart="30.00" departLane="E0_0" departPos="5.10" departSpeed="0.00" departDelay="0.00" arrival="302.00" arrivalLane="E1_0" arrivalPos="100.00" arrivalSpeed="30.00" duration="272.00" routeLength="7731.56" waitingTime="0.00" waitingCount="0" stopTime="0.00" timeLoss="131.63" rerouteNo="1" devices="tripinfo_car30.0" vType="traffic" speedFactor="1.10" vaporized=""/>
    <personinfo id="p15" depart="0.00" type="DEFAULT_PEDTYPE">
        <walk depart="0.00" departPos="221.00" arrival="7.00" arrivalPos="226.67" duration="7.00" routeLength="5.67" timeLoss="2.88" maxSpeed="1.38"/>
        <ride waitingTime="68.00" vehicle="bus.1" depart="75.00" arrival="305.00" arrivalPos="231.67" duration="230.00" routeLength="2660.00" timeLoss="25.00"/>
        <walk depart="305.00" departPos="231.67" arrival="320.00" arrivalPos="250.00" duration="15.00" routeLength="18.33" timeLoss="1.80" maxSpeed="1.39"/>
    </personinfo>
    <personinfo id="pStop2.1" depart="21.28" type="DEFAULT_PEDTYPE">
        <walk depart="22.00" departPos="200.00" arrival="43.00" arrivalPos="226.67" duration="21.00" routeLength="26.67" timeLoss="2.23" maxSpeed="1.42"/>
        <ride waitingTime="32.00" vehicle="bus.1" depart="75.00" arrival="305.00" arrivalPos="231.67" duration="230.00" routeLength="2660.00" timeLoss="25.00"/>
        <walk depart="305.00" departPos="231.67" arrival="321.00" arrivalPos="250.00" duration="16.00" routeLength="18.33" timeLoss="2.80" maxSpeed="1.39"/>
    </personinfo>
    <personinfo id="p51" depart="0.00" type="DEFAULT_PEDTYPE">
        <walk depart="0.00" departPos="221.00" arrival="6.00" arrivalPos="226.67" duration="6.00" routeLength="5.67" timeLoss="1.23" maxSpeed="1.19"/>
        <ride waitingTime="209.00" vehicle="bus.1" depart="215.00" arrival="306.00" arrivalPos="231.67" duration="91.00" routeLength="886.66" timeLoss="11.67"/>
        <walk depart="306.00" departPos="231.67" arrival="321.00" arrivalPos="250.00" duration="15.00" routeLength="18.33" timeLoss="1.80" maxSpeed="1.39"/>
    </personinfo>
    <personinfo id="pStop5.2" depart="124.36" type="DEFAULT_PEDTYPE">
        <walk depart="125.00" departPos="200.00" arrival="151.00" arrivalPos="226.67" duration="26.00" routeLength="26.67" timeLoss="2.38" maxSpeed="1.13"/>
        <ride waitingTime="15.00" vehicle="bus.1" depart="166.00" arrival="306.00" arrivalPos="231.67" duration="140.00" routeLength="1330.00" timeLoss="17.50"/>
        <walk depart="306.00" departPos="231.67" arrival="322.00" arrivalPos="250.00" duration="16.00" routeLength="18.33" timeLoss="2.80" maxSpeed="1.39"/>
    </personinfo>
    <personinfo id="p59" depart="0.00" type="DEFAULT_PEDTYPE">
        <walk depart="0.00" departPos="221.00" arrival="12.00" arrivalPos="226.67" duration="12.00" routeLength="5.67" timeLoss="8.01" maxSpeed="1.42"/>
        <ride waitingTime="203.00" vehicle="bus.1" depart="215.00" arrival="307.00" arrivalPos="231.67" duration="92.00" routeLength="886.66" timeLoss="11.67"/>
        <walk depart="307.00" departPos="231.67" arrival="322.00" arrivalPos="250.00" duration="15.00" routeLength="18.33" timeLoss="1.80" maxSpeed="1.39"/>
    </personinfo>
    <personinfo id="p64" depart="0.00" type="DEFAULT_PEDTYPE">
        <walk depart="0.00" departPos="221.00" arrival="9.00" arrivalPos="226.67" duration="9.00" routeLength="5.67" timeLoss="4.86" maxSpeed="1.37"/>
        <ride waitingTime="257.00" vehicle="bus.1" depart="266.00" arrival="307.00" arrivalPos="231.67" duration="41.00" routeLength="443.33" timeLoss="5.83"/>
        <walk depart="307.00" departPos="231.67" arrival="323.00" arrivalPos="250.00" duration="16.00" routeLength="18.33" timeLoss="2.80" maxSpeed="1.39"/>
    </personinfo>
    <personinfo id="pStop7.0" depart="9.04" type="DEFAULT_PEDTYPE">
        <walk depart="10.00" departPos="200.00" arrival="32.00" arrivalPos="226.67" duration="22.00" routeLength="26.67" timeLoss="2.09" maxSpeed="1.34"/>
        <ride waitingTime="234.00" vehicle="bus.1" depart="266.00" arrival="308.00" arrivalPos="231.67" duration="42.00" routeLength="443.33" timeLoss="5.83"/>
        <walk depart="308.00" departPos="231.67" arrival="323.00" arrivalPos="250.00" duration="15.00" routeLength="18.33" timeLoss="1.80" maxSpeed="1.39"/>
    </personinfo>
    <personinfo id="pStop7.3" depart="84.39" type="DEFAULT_PEDTYPE">
        <walk depart="85.00" departPos="200.00" arrival="107.00" arrivalPos="226.67" duration="22.00" routeLength="26.67" timeLoss="2.44" maxSpeed="1.36"/>
        <ride waitingTime="159.00" vehicle="bus.1" depart="266.00" arrival="308.00" arrivalPos="231.67" duration="42.00" routeLength="443.33" timeLoss="5.83"/>
        <walk depart="308.00" departPos="231.67" arrival="324.00" arrivalPos="250.00" duration="16.00" routeLength="18.33" timeLoss="2.80" maxSpeed="1.39"/>
    </personinfo>
    <personinfo id="pStop7.12" depart="196.70" type="DEFAULT_PEDTYPE">
        <walk depart="197.00" departPos="200.00" arrival="218.00" arrivalPos="226.67" duration="21.00" routeLength="26.67" timeLoss="3.04" maxSpeed="1.49"/>
        <ride waitingTime="48.00" vehicle="bus.1" depart="266.00" arrival="309.00" arrivalPos="231.67" duration="43.00" routeLength="443.33" timeLoss="5.83"/>
        <walk depart="309.00" departPos="231.67" arrival="324.00" arrivalPos="250.00" duration="15.00" routeLength="18.33" timeLoss="1.80" maxSpeed="1.39"/>
    </personinfo>
    <personinfo id="pStop7.9" depart="170.11" type="DEFAULT_PEDTYPE">
        <walk depart="171.00" departPos="200.00" arrival="192.00" arrivalPos="226.67" duration="21.00" routeLength="26.67" timeLoss="3.29" maxSpeed="1.51"/>
        <ride waitingTime="74.00" vehicle="bus.1" depart="266.00" arrival="309.00" arrivalPos="231.67" duration="43.00" routeLength="443.33" timeLoss="5.83"/>
        <walk depart="309.00" departPos="231.67" arrival="325.00" arrivalPos="250.00" duration="16.00" routeLength="18.33" timeLoss="2.80" maxSpeed="1.39"/>
    </personinfo>
    <personinfo id="pStop7.16" depart="224.78" type="DEFAULT_PEDTYPE">
        <walk depart="225.00" departPos="200.00" arrival="250.00" arrivalPos="226.67" duration="25.00" routeLength="26.67" timeLoss="3.50" maxSpeed="1.24"/>
        <ride waitingTime="16.00" vehicle="bus.1" depart="266.00" arrival="310.00" arrivalPos="231.67" duration="44.00" routeLength="443.33" timeLoss="5.83"/>
        <walk depart="310.00" departPos="231.67" arrival="326.00" arrivalPos="250.00" duration="16.00" routeLength="18.33" timeLoss="2.80" maxSpeed="1.39"/>
    </personinfo>
    <personinfo id="pStop4.1" depart="149.41" type="DEFAULT_PEDTYPE">
        <walk depart="150.00" departPos="200.00" arrival="168.00" arrivalPos="226.67" duration="18.00" routeLength="26.67" timeLoss="1.91" maxSpeed="1.66"/>
        <ride waitingTime="28.00" vehicle="bus.4" depart="196.00" arrival="313.00" arrivalPos="231.67" duration="117.00" routeLength="1330.00" timeLoss="19.50"/>
        <walk depart="313.00" departPos="231.67" arrival="328.00" arrivalPos="250.00" duration="15.00" routeLength="18.33" timeLoss="1.80" maxSpeed="1.39"/>
    </personinfo>
    <personinfo id="pStop5.4" depart="180.87" type="DEFAULT_PEDTYPE">
        <walk depart="181.00" departPos="200.00" arrival="207.00" arrivalPos="226.67" duration="26.00" routeLength="26.67" timeLoss="3.39" maxSpeed="1.18"/>
        <ride waitingTime="12.00" vehicle="bus.3" depart="219.00" arrival="336.00" arrivalPos="231.67" duration="117.00" routeLength="1330.00" timeLoss="20.50"/>
        <walk depart="336.00" departPos="231.67" arrival="351.00" arrivalPos="250.00" duration="15.00" routeLength="18.33" timeLoss="1.80" maxSpeed="1.39"/>
    </personinfo>
    <personinfo id="pStop7.17" depart="268.65" type="DEFAULT_PEDTYPE">
        <walk depart="269.00" departPos="200.00" arrival="291.00" arrivalPos="226.67" duration="22.00" routeLength="26.67" timeLoss="2.32" maxSpeed="1.36"/>
        <ride waitingTime="17.00" vehicle="bus.3" depart="308.00" arrival="336.00" arrivalPos="231.67" duration="28.00" routeLength="443.33" timeLoss="5.83"/>
        <walk depart="336.00" departPos="231.67" arrival="352.00" arrivalPos="250.00" duration="16.00" routeLength="18.33" timeLoss="2.80" maxSpeed="1.39"/>
    </personinfo>
    <personinfo id="p25" depart="0.00" type="DEFAULT_PEDTYPE">
        <walk depart="0.00" departPos="221.00" arrival="8.00" arrivalPos="226.67" duration="8.00" routeLength="5.67" timeLoss="3.06" maxSpeed="1.15"/>
        <ride waitingTime="122.00" vehicle="bus.2" depart="130.00" arrival="347.00" arrivalPos="231.67" duration="217.00" routeLength="2660.00" timeLoss="33.00"/>
        <walk depart="347.00" departPos="231.67" arrival="362.00" arrivalPos="250.00" duration="15.00" routeLength="18.33" timeLoss="1.80" maxSpeed="1.39"/>
    </personinfo>
    <personinfo id="p27" depart="0.00" type="DEFAULT_PEDTYPE">
        <walk depart="0.00" departPos="221.00" arrival="9.00" arrivalPos="226.67" duration="9.00" routeLength="5.67" timeLoss="4.55" maxSpeed="1.27"/>
        <ride waitingTime="121.00" vehicle="bus.2" depart="130.00" arrival="347.00" arrivalPos="231.67" duration="217.00" routeLength="2660.00" timeLoss="33.00"/>
        <walk depart="347.00" departPos="231.67" arrival="363.00" arrivalPos="250.00" duration="16.00" routeLength="18.33" timeLoss="2.80" maxSpeed="1.39"/>
    </personinfo>
    <personinfo id="pStop3.1" depart="76.41" type="DEFAULT_PEDTYPE">
        <walk depart="77.00" departPos="200.00" arrival="97.00" arrivalPos="226.67" duration="20.00" routeLength="26.67" timeLoss="2.38" maxSpeed="1.51"/>
        <ride waitingTime="33.00" vehicle="bus.2" depart="130.00" arrival="348.00" arrivalPos="231.67" duration="218.00" routeLength="2660.00" timeLoss="33.00"/>
        <walk depart="348.00" departPos="231.67" arrival="364.00" arrivalPos="250.00" duration="16.00" routeLength="18.33" timeLoss="2.80" maxSpeed="1.39"/>
    </personinfo>
</tripinfos>
