<?xml version="1.0" encoding="UTF-8"?>

<!-- generated on 2022-11-07 22:47:07 by Eclipse SUMO GUI Version 1.14.1
<configuration xmlns:xsi="http://www.w3.org/2001/XMLSchema-instance" xsi:noNamespaceSchemaLocation="http://sumo.dlr.de/xsd/sumoConfiguration.xsd">

    <input>
        <net-file value="demo.net.xml"/>
        <additional-files value="demo.add.xml"/>
    </input>

    <output>
        <tripinfo-output value="tripinfo.xml"/>
    </output>

    <processing>
        <no-internal-links value="false"/>
    </processing>

    <report>
        <no-warnings value="true"/>
    </report>

    <traci_server>
        <remote-port value="53007"/>
    </traci_server>

</configuration>
-->

<tripinfos xmlns:xsi="http://www.w3.org/2001/XMLSchema-instance" xsi:noNamespaceSchemaLocation="http://sumo.dlr.de/xsd/tripinfo_file.xsd">
    <personinfo id="persons2.0" depart="0.00" type="DEFAULT_PEDTYPE">
        <walk depart="0.00" departPos="0.00" arrival="15.00" arrivalPos="17.50" duration="15.00" routeLength="17.50" timeLoss="2.11" maxSpeed="1.36"/>
        <ride waitingTime="35.00" vehicle="bus.0" depart="50.00" arrival="65.00" arrivalPos="20.00" duration="15.00" routeLength="122.63" timeLoss="4.17"/>
        <walk depart="65.00" departPos="20.00" arrival="74.00" arrivalPos="30.00" duration="9.00" routeLength="10.00" timeLoss="1.63" maxSpeed="1.36"/>
    </personinfo>
    <personinfo id="persons2.1" depart="15.00" type="DEFAULT_PEDTYPE">
        <walk depart="15.00" departPos="0.00" arrival="29.00" arrivalPos="17.50" duration="14.00" routeLength="17.50" timeLoss="1.79" maxSpeed="1.43"/>
        <ride waitingTime="21.00" vehicle="bus.0" depart="50.00" arrival="66.00" arrivalPos="20.00" duration="16.00" routeLength="122.63" timeLoss="4.17"/>
        <walk depart="66.00" departPos="20.00" arrival="74.00" arrivalPos="30.00" duration="8.00" routeLength="10.00" timeLoss="1.03" maxSpeed="1.43"/>
    </personinfo>
    <personinfo id="persons2.2" depart="30.00" type="DEFAULT_PEDTYPE">
        <walk depart="30.00" departPos="0.00" arrival="44.00" arrivalPos="17.50" duration="14.00" routeLength="17.50" timeLoss="1.63" maxSpeed="1.41"/>
        <ride waitingTime="6.00" vehicle="bus.0" depart="50.00" arrival="66.00" arrivalPos="20.00" duration="16.00" routeLength="122.63" timeLoss="4.17"/>
        <walk depart="66.00" departPos="20.00" arrival="75.00" arrivalPos="30.00" duration="9.00" routeLength="10.00" timeLoss="1.93" maxSpeed="1.41"/>
    </personinfo>
