<?xml version="1.0" encoding="UTF-8"?>

<!-- generated on 2023-03-11 17:04:21 by Eclipse SUMO GUI Version 1.14.1
<configuration xmlns:xsi="http://www.w3.org/2001/XMLSchema-instance" xsi:noNamespaceSchemaLocation="http://sumo.dlr.de/xsd/sumoConfiguration.xsd">

    <input>
        <net-file value="traffic/ring.net.xml"/>
        <additional-files value="traffic/ring.add.xml,traffic/persons.add.xml"/>
    </input>

    <output>
        <tripinfo-output value="tripinfo.xml"/>
    </output>

    <processing>
        <no-internal-links value="false"/>
        <lanechange.overtake-right value="true"/>
    </processing>

    <report>
        <no-warnings value="true"/>
    </report>

    <traci_server>
        <remote-port value="55898"/>
    </traci_server>

</configuration>
-->

<tripinfos xmlns:xsi="http://www.w3.org/2001/XMLSchema-instance" xsi:noNamespaceSchemaLocation="http://sumo.dlr.de/xsd/tripinfo_file.xsd">
    <personinfo id="p82" depart="0.00" type="DEFAULT_PEDTYPE">
        <walk depart="0.00" departPos="221.00" arrival="6.00" arrivalPos="226.67" duration="6.00" routeLength="5.67" timeLoss="1.91" maxSpeed="1.39"/>
        <ride waitingTime="27.00" vehicle="bus.2" depart="33.00" arrival="65.00" arrivalPos="231.67" duration="32.00" routeLength="443.33" timeLoss="5.83"/>
        <walk depart="65.00" departPos="231.67" arrival="80.00" arrivalPos="250.00" duration="15.00" routeLength="18.33" timeLoss="1.80" maxSpeed="1.39"/>
    </personinfo>
    <personinfo id="p30" depart="0.00" type="DEFAULT_PEDTYPE">
        <walk depart="0.00" departPos="221.00" arrival="10.00" arrivalPos="226.67" duration="10.00" routeLength="5.67" timeLoss="5.62" maxSpeed="1.29"/>
        <ride waitingTime="23.00" vehicle="bus.5" depart="33.00" arrival="66.00" arrivalPos="231.67" duration="33.00" routeLength="443.33" timeLoss="5.83"/>
        <walk depart="66.00" departPos="231.67" arrival="81.00" arrivalPos="250.00" duration="15.00" routeLength="18.33" timeLoss="1.80" maxSpeed="1.39"/>
    </personinfo>
    <personinfo id="p49" depart="0.00" type="DEFAULT_PEDTYPE">
        <walk depart="0.00" departPos="221.00" arrival="8.00" arrivalPos="226.67" duration="8.00" routeLength="5.67" timeLoss="3.35" maxSpeed="1.22"/>
        <ride waitingTime="25.00" vehicle="bus.4" depart="33.00" arrival="66.00" arrivalPos="231.67" duration="33.00" routeLength="443.34" timeLoss="5.83"/>
        <walk depart="66.00" departPos="231.67" arrival="81.00" arrivalPos="250.00" duration="15.00" routeLength="18.33" timeLoss="1.80" maxSpeed="1.39"/>
    </personinfo>
    <personinfo id="p63" depart="0.00" type="DEFAULT_PEDTYPE">
        <walk depart="0.00" departPos="221.00" arrival="6.00" arrivalPos="226.67" duration="6.00" routeLength="5.67" timeLoss="1.98" maxSpeed="1.41"/>
        <ride waitingTime="27.00" vehicle="bus.3" depart="33.00" arrival="66.00" arrivalPos="231.67" duration="33.00" routeLength="443.33" timeLoss="5.83"/>
        <walk depart="66.00" departPos="231.67" arrival="81.00" arrivalPos="250.00" duration="15.00" routeLength="18.33" timeLoss="1.80" maxSpeed="1.39"/>
    </personinfo>
    <personinfo id="p65" depart="0.00" type="DEFAULT_PEDTYPE">
        <walk depart="0.00" departPos="221.00" arrival="6.00" arrivalPos="226.67" duration="6.00" routeLength="5.67" timeLoss="1.65" maxSpeed="1.30"/>
        <ride waitingTime="27.00" vehicle="bus.3" depart="33.00" arrival="66.00" arrivalPos="231.67" duration="33.00" routeLength="443.33" timeLoss="5.83"/>
        <walk depart="66.00" departPos="231.67" arrival="82.00" arrivalPos="250.00" duration="16.00" routeLength="18.33" timeLoss="2.80" maxSpeed="1.39"/>
    </personinfo>
    <personinfo id="p67" depart="0.00" type="DEFAULT_PEDTYPE">
        <walk depart="0.00" departPos="221.00" arrival="8.00" arrivalPos="226.67" duration="8.00" routeLength="5.67" timeLoss="3.50" maxSpeed="1.26"/>
        <ride waitingTime="25.00" vehicle="bus.3" depart="33.00" arrival="67.00" arrivalPos="231.67" duration="34.00" routeLength="443.33" timeLoss="5.83"/>
        <walk depart="67.00" departPos="231.67" arrival="83.00" arrivalPos="250.00" duration="16.00" routeLength="18.33" timeLoss="2.80" maxSpeed="1.39"/>
    </personinfo>
    <personinfo id="p16" depart="0.00" type="DEFAULT_PEDTYPE">
        <walk depart="0.00" departPos="221.00" arrival="8.00" arrivalPos="226.67" duration="8.00" routeLength="5.67" timeLoss="3.60" maxSpeed="1.29"/>
        <ride waitingTime="51.00" vehicle="bus.0" depart="59.00" arrival="87.00" arrivalPos="231.67" duration="28.00" routeLength="443.34" timeLoss="5.83"/>
        <walk depart="87.00" departPos="231.67" arrival="102.00" arrivalPos="250.00" duration="15.00" routeLength="18.33" timeLoss="1.80" maxSpeed="1.39"/>
    </personinfo>
    <personinfo id="p18" depart="0.00" type="DEFAULT_PEDTYPE">
        <walk depart="0.00" departPos="221.00" arrival="9.00" arrivalPos="226.67" duration="9.00" routeLength="5.67" timeLoss="4.66" maxSpeed="1.31"/>
        <ride waitingTime="50.00" vehicle="bus.0" depart="59.00" arrival="87.00" arrivalPos="231.67" duration="28.00" routeLength="443.34" timeLoss="5.83"/>
        <walk depart="87.00" departPos="231.67" arrival="102.00" arrivalPos="250.00" duration="15.00" routeLength="18.33" timeLoss="1.80" maxSpeed="1.39"/>
    </personinfo>
    <personinfo id="pStop2.0" depart="1.58" type="DEFAULT_PEDTYPE">
        <walk depart="2.00" departPos="200.00" arrival="21.00" arrivalPos="226.67" duration="19.00" routeLength="26.67" timeLoss="2.40" maxSpeed="1.61"/>
        <ride waitingTime="38.00" vehicle="bus.0" depart="59.00" arrival="88.00" arrivalPos="231.67" duration="29.00" routeLength="443.34" timeLoss="5.83"/>
        <walk depart="88.00" departPos="231.67" arrival="103.00" arrivalPos="250.00" duration="15.00" routeLength="18.33" timeLoss="1.80" maxSpeed="1.39"/>
    </personinfo>
    <personinfo id="pStop2.1" depart="21.28" type="DEFAULT_PEDTYPE">
        <walk depart="22.00" departPos="200.00" arrival="43.00" arrivalPos="226.67" duration="21.00" routeLength="26.67" timeLoss="2.23" maxSpeed="1.42"/>
        <ride waitingTime="16.00" vehicle="bus.0" depart="59.00" arrival="88.00" arrivalPos="231.67" duration="29.00" routeLength="443.34" timeLoss="5.83"/>
        <walk depart="88.00" departPos="231.67" arrival="104.00" arrivalPos="250.00" duration="16.00" routeLength="18.33" timeLoss="2.80" maxSpeed="1.39"/>
    </personinfo>
    <personinfo id="p110" depart="0.00" type="DEFAULT_PEDTYPE">
        <walk depart="0.00" departPos="221.00" arrival="9.00" arrivalPos="226.67" duration="9.00" routeLength="5.67" timeLoss="4.75" maxSpeed="1.33"/>
        <ride waitingTime="24.00" vehicle="bus.1" depart="33.00" arrival="98.00" arrivalPos="231.67" duration="65.00" routeLength="886.67" timeLoss="11.67"/>
        <walk depart="98.00" departPos="231.67" arrival="113.00" arrivalPos="250.00" duration="15.00" routeLength="18.33" timeLoss="1.80" maxSpeed="1.39"/>
    </personinfo>
    <personinfo id="p109" depart="0.00" type="DEFAULT_PEDTYPE">
        <walk depart="0.00" departPos="221.00" arrival="10.00" arrivalPos="226.67" duration="10.00" routeLength="5.67" timeLoss="6.17" maxSpeed="1.48"/>
        <ride waitingTime="23.00" vehicle="bus.1" depart="33.00" arrival="99.00" arrivalPos="231.67" duration="66.00" routeLength="886.67" timeLoss="11.67"/>
        <walk depart="99.00" departPos="231.67" arrival="114.00" arrivalPos="250.00" duration="15.00" routeLength="18.33" timeLoss="1.80" maxSpeed="1.39"/>
    </personinfo>
    <personinfo id="p117" depart="0.00" type="DEFAULT_PEDTYPE">
        <walk depart="0.00" departPos="221.00" arrival="9.00" arrivalPos="226.67" duration="9.00" routeLength="5.67" timeLoss="5.53" maxSpeed="1.63"/>
        <ride waitingTime="57.00" vehicle="bus.1" depart="66.00" arrival="99.00" arrivalPos="231.67" duration="33.00" routeLength="443.33" timeLoss="5.83"/>
        <walk depart="99.00" departPos="231.67" arrival="114.00" arrivalPos="250.00" duration="15.00" routeLength="18.33" timeLoss="1.80" maxSpeed="1.39"/>
    </personinfo>
    <personinfo id="p81" depart="0.00" type="DEFAULT_PEDTYPE">
        <walk depart="0.00" departPos="221.00" arrival="5.00" arrivalPos="226.67" duration="5.00" routeLength="5.67" timeLoss="1.05" maxSpeed="1.44"/>
        <ride waitingTime="28.00" vehicle="bus.2" depart="33.00" arrival="104.00" arrivalPos="231.67" duration="71.00" routeLength="886.66" timeLoss="11.67"/>
        <walk depart="104.00" departPos="231.67" arrival="119.00" arrivalPos="250.00" duration="15.00" routeLength="18.33" timeLoss="1.80" maxSpeed="1.39"/>
    </personinfo>
    <personinfo id="p26" depart="0.00" type="DEFAULT_PEDTYPE">
        <walk depart="0.00" departPos="221.00" arrival="9.00" arrivalPos="226.67" duration="9.00" routeLength="5.67" timeLoss="4.32" maxSpeed="1.21"/>
        <ride waitingTime="24.00" vehicle="bus.5" depart="33.00" arrival="104.00" arrivalPos="231.67" duration="71.00" routeLength="886.66" timeLoss="11.67"/>
        <walk depart="104.00" departPos="231.67" arrival="119.00" arrivalPos="250.00" duration="15.00" routeLength="18.33" timeLoss="1.80" maxSpeed="1.39"/>
    </personinfo>
    <personinfo id="p44" depart="0.00" type="DEFAULT_PEDTYPE">
        <walk depart="0.00" departPos="221.00" arrival="5.00" arrivalPos="226.67" duration="5.00" routeLength="5.67" timeLoss="1.07" maxSpeed="1.44"/>
        <ride waitingTime="28.00" vehicle="bus.4" depart="33.00" arrival="104.00" arrivalPos="231.67" duration="71.00" routeLength="886.67" timeLoss="11.67"/>
        <walk depart="104.00" departPos="231.67" arrival="119.00" arrivalPos="250.00" duration="15.00" routeLength="18.33" timeLoss="1.80" maxSpeed="1.39"/>
    </personinfo>
    <personinfo id="p64" depart="0.00" type="DEFAULT_PEDTYPE">
        <walk depart="0.00" departPos="221.00" arrival="9.00" arrivalPos="226.67" duration="9.00" routeLength="5.67" timeLoss="4.86" maxSpeed="1.37"/>
        <ride waitingTime="24.00" vehicle="bus.3" depart="33.00" arrival="104.00" arrivalPos="231.67" duration="71.00" routeLength="886.67" timeLoss="11.67"/>
        <walk depart="104.00" departPos="231.67" arrival="119.00" arrivalPos="250.00" duration="15.00" routeLength="18.33" timeLoss="1.80" maxSpeed="1.39"/>
    </personinfo>
    <personinfo id="p74" depart="0.00" type="DEFAULT_PEDTYPE">
        <walk depart="0.00" departPos="221.00" arrival="6.00" arrivalPos="226.67" duration="6.00" routeLength="5.67" timeLoss="2.13" maxSpeed="1.47"/>
        <ride waitingTime="70.00" vehicle="bus.3" depart="76.00" arrival="104.00" arrivalPos="231.67" duration="28.00" routeLength="443.34" timeLoss="5.83"/>
        <walk depart="104.00" departPos="231.67" arrival="119.00" arrivalPos="250.00" duration="15.00" routeLength="18.33" timeLoss="1.80" maxSpeed="1.39"/>
    </personinfo>
    <personinfo id="p86" depart="0.00" type="DEFAULT_PEDTYPE">
        <walk depart="0.00" departPos="221.00" arrival="7.00" arrivalPos="226.67" duration="7.00" routeLength="5.67" timeLoss="2.82" maxSpeed="1.36"/>
        <ride waitingTime="26.00" vehicle="bus.2" depart="33.00" arrival="104.00" arrivalPos="231.67" duration="71.00" routeLength="886.66" timeLoss="11.67"/>
        <walk depart="104.00" departPos="231.67" arrival="120.00" arrivalPos="250.00" duration="16.00" routeLength="18.33" timeLoss="2.80" maxSpeed="1.39"/>
    </personinfo>
    <personinfo id="p31" depart="0.00" type="DEFAULT_PEDTYPE">
        <walk depart="0.00" departPos="221.00" arrival="4.00" arrivalPos="226.67" duration="4.00" routeLength="5.67" timeLoss="0.54" maxSpeed="1.64"/>
        <ride waitingTime="72.00" vehicle="bus.5" depart="76.00" arrival="104.00" arrivalPos="231.67" duration="28.00" routeLength="443.33" timeLoss="5.83"/>
        <walk depart="104.00" departPos="231.67" arrival="120.00" arrivalPos="250.00" duration="16.00" routeLength="18.33" timeLoss="2.80" maxSpeed="1.39"/>
    </personinfo>
    <personinfo id="p27" depart="0.00" type="DEFAULT_PEDTYPE">
        <walk depart="0.00" departPos="221.00" arrival="9.00" arrivalPos="226.67" duration="9.00" routeLength="5.67" timeLoss="4.55" maxSpeed="1.27"/>
        <ride waitingTime="24.00" vehicle="bus.5" depart="33.00" arrival="104.00" arrivalPos="231.67" duration="71.00" routeLength="886.66" timeLoss="11.67"/>
        <walk depart="104.00" departPos="231.67" arrival="120.00" arrivalPos="250.00" duration="16.00" routeLength="18.33" timeLoss="2.80" maxSpeed="1.39"/>
    </personinfo>
    <personinfo id="p34" depart="0.00" type="DEFAULT_PEDTYPE">
        <walk depart="0.00" departPos="221.00" arrival="7.00" arrivalPos="226.67" duration="7.00" routeLength="5.67" timeLoss="3.52" maxSpeed="1.63"/>
        <ride waitingTime="69.00" vehicle="bus.5" depart="76.00" arrival="105.00" arrivalPos="231.67" duration="29.00" routeLength="443.33" timeLoss="5.83"/>
        <walk depart="105.00" departPos="231.67" arrival="120.00" arrivalPos="250.00" duration="15.00" routeLength="18.33" timeLoss="1.80" maxSpeed="1.39"/>
    </personinfo>
    <personinfo id="p51" depart="0.00" type="DEFAULT_PEDTYPE">
        <walk depart="0.00" departPos="221.00" arrival="6.00" arrivalPos="226.67" duration="6.00" routeLength="5.67" timeLoss="1.23" maxSpeed="1.19"/>
        <ride waitingTime="70.00" vehicle="bus.4" depart="76.00" arrival="105.00" arrivalPos="231.67" duration="29.00" routeLength="443.33" timeLoss="5.83"/>
        <walk depart="105.00" departPos="231.67" arrival="120.00" arrivalPos="250.00" duration="15.00" routeLength="18.33" timeLoss="1.80" maxSpeed="1.39"/>
    </personinfo>
    <personinfo id="p85" depart="0.00" type="DEFAULT_PEDTYPE">
        <walk depart="0.00" departPos="221.00" arrival="8.00" arrivalPos="226.67" duration="8.00" routeLength="5.67" timeLoss="4.44" maxSpeed="1.59"/>
        <ride waitingTime="25.00" vehicle="bus.2" depart="33.00" arrival="105.00" arrivalPos="231.67" duration="72.00" routeLength="886.66" timeLoss="11.67"/>
        <walk depart="105.00" departPos="231.67" arrival="121.00" arrivalPos="250.00" duration="16.00" routeLength="18.33" timeLoss="2.80" maxSpeed="1.39"/>
    </personinfo>
    <personinfo id="p99" depart="0.00" type="DEFAULT_PEDTYPE">
        <walk depart="0.00" departPos="221.00" arrival="8.00" arrivalPos="226.67" duration="8.00" routeLength="5.67" timeLoss="4.36" maxSpeed="1.56"/>
        <ride waitingTime="68.00" vehicle="bus.2" depart="76.00" arrival="105.00" arrivalPos="231.67" duration="29.00" routeLength="443.33" timeLoss="5.83"/>
        <walk depart="105.00" departPos="231.67" arrival="121.00" arrivalPos="250.00" duration="16.00" routeLength="18.33" timeLoss="2.80" maxSpeed="1.39"/>
    </personinfo>
    <personinfo id="p36" depart="0.00" type="DEFAULT_PEDTYPE">
        <walk depart="0.00" departPos="221.00" arrival="8.00" arrivalPos="226.67" duration="8.00" routeLength="5.67" timeLoss="4.00" maxSpeed="1.42"/>
        <ride waitingTime="68.00" vehicle="bus.5" depart="76.00" arrival="105.00" arrivalPos="231.67" duration="29.00" routeLength="443.33" timeLoss="5.83"/>
        <walk depart="105.00" departPos="231.67" arrival="121.00" arrivalPos="250.00" duration="16.00" routeLength="18.33" timeLoss="2.80" maxSpeed="1.39"/>
    </personinfo>
    <personinfo id="p52" depart="0.00" type="DEFAULT_PEDTYPE">
        <walk depart="0.00" departPos="221.00" arrival="7.00" arrivalPos="226.67" duration="7.00" routeLength="5.67" timeLoss="3.51" maxSpeed="1.62"/>
        <ride waitingTime="69.00" vehicle="bus.4" depart="76.00" arrival="105.00" arrivalPos="231.67" duration="29.00" routeLength="443.33" timeLoss="5.83"/>
        <walk depart="105.00" departPos="231.67" arrival="121.00" arrivalPos="250.00" duration="16.00" routeLength="18.33" timeLoss="2.80" maxSpeed="1.39"/>
    </personinfo>
    <personinfo id="p37" depart="0.00" type="DEFAULT_PEDTYPE">
        <walk depart="0.00" departPos="221.00" arrival="8.00" arrivalPos="226.67" duration="8.00" routeLength="5.67" timeLoss="3.81" maxSpeed="1.35"/>
        <ride waitingTime="68.00" vehicle="bus.5" depart="76.00" arrival="106.00" arrivalPos="231.67" duration="30.00" routeLength="443.33" timeLoss="5.83"/>
        <walk depart="106.00" departPos="231.67" arrival="122.00" arrivalPos="250.00" duration="16.00" routeLength="18.33" timeLoss="2.80" maxSpeed="1.39"/>
    </personinfo>
    <personinfo id="p39" depart="0.00" type="DEFAULT_PEDTYPE">
        <walk depart="0.00" departPos="221.00" arrival="9.00" arrivalPos="226.67" duration="9.00" routeLength="5.67" timeLoss="5.30" maxSpeed="1.53"/>
        <ride waitingTime="67.00" vehicle="bus.5" depart="76.00" arrival="106.00" arrivalPos="231.67" duration="30.00" routeLength="443.33" timeLoss="5.83"/>
        <walk depart="106.00" departPos="231.67" arrival="122.00" arrivalPos="250.00" duration="16.00" routeLength="18.33" timeLoss="2.80" maxSpeed="1.39"/>
    </personinfo>
    <personinfo id="p11" depart="0.00" type="DEFAULT_PEDTYPE">
        <walk depart="0.00" departPos="221.00" arrival="4.00" arrivalPos="226.67" duration="4.00" routeLength="5.67" timeLoss="0.26" maxSpeed="1.51"/>
        <ride waitingTime="55.00" vehicle="bus.0" depart="59.00" arrival="133.00" arrivalPos="231.67" duration="74.00" routeLength="886.67" timeLoss="11.67"/>
        <walk depart="133.00" departPos="231.67" arrival="148.00" arrivalPos="250.00" duration="15.00" routeLength="18.33" timeLoss="1.80" maxSpeed="1.39"/>
    </personinfo>
    <personinfo id="p14" depart="0.00" type="DEFAULT_PEDTYPE">
        <walk depart="0.00" departPos="221.00" arrival="7.00" arrivalPos="226.67" duration="7.00" routeLength="5.67" timeLoss="3.36" maxSpeed="1.56"/>
        <ride waitingTime="52.00" vehicle="bus.0" depart="59.00" arrival="133.00" arrivalPos="231.67" duration="74.00" routeLength="886.67" timeLoss="11.67"/>
        <walk depart="133.00" departPos="231.67" arrival="149.00" arrivalPos="250.00" duration="16.00" routeLength="18.33" timeLoss="2.80" maxSpeed="1.39"/>
    </personinfo>
    <personinfo id="p15" depart="0.00" type="DEFAULT_PEDTYPE">
        <walk depart="0.00" departPos="221.00" arrival="7.00" arrivalPos="226.67" duration="7.00" routeLength="5.67" timeLoss="2.88" maxSpeed="1.38"/>
        <ride waitingTime="52.00" vehicle="bus.0" depart="59.00" arrival="133.00" arrivalPos="231.67" duration="74.00" routeLength="886.67" timeLoss="11.67"/>
        <walk depart="133.00" departPos="231.67" arrival="149.00" arrivalPos="250.00" duration="16.00" routeLength="18.33" timeLoss="2.80" maxSpeed="1.39"/>
    </personinfo>
    <personinfo id="p100" depart="0.00" type="DEFAULT_PEDTYPE">
        <walk depart="0.00" departPos="221.00" arrival="5.00" arrivalPos="226.67" duration="5.00" routeLength="5.67" timeLoss="1.28" maxSpeed="1.52"/>
        <ride waitingTime="71.00" vehicle="bus.2" depart="76.00" arrival="136.00" arrivalPos="231.67" duration="60.00" routeLength="886.67" timeLoss="11.67"/>
        <walk depart="136.00" departPos="231.67" arrival="151.00" arrivalPos="250.00" duration="15.00" routeLength="18.33" timeLoss="1.80" maxSpeed="1.39"/>
    </personinfo>
    <personinfo id="p84" depart="0.00" type="DEFAULT_PEDTYPE">
        <walk depart="0.00" departPos="221.00" arrival="8.00" arrivalPos="226.67" duration="8.00" routeLength="5.67" timeLoss="3.78" maxSpeed="1.34"/>
        <ride waitingTime="25.00" vehicle="bus.2" depart="33.00" arrival="136.00" arrivalPos="231.67" duration="103.00" routeLength="1330.00" timeLoss="17.50"/>
        <walk depart="136.00" departPos="231.67" arrival="152.00" arrivalPos="250.00" duration="16.00" routeLength="18.33" timeLoss="2.80" maxSpeed="1.39"/>
    </personinfo>
    <personinfo id="p93" depart="0.00" type="DEFAULT_PEDTYPE">
        <walk depart="0.00" departPos="221.00" arrival="9.00" arrivalPos="226.67" duration="9.00" routeLength="5.67" timeLoss="4.10" maxSpeed="1.16"/>
        <ride waitingTime="67.00" vehicle="bus.2" depart="76.00" arrival="137.00" arrivalPos="231.67" duration="61.00" routeLength="886.67" timeLoss="11.67"/>
        <walk depart="137.00" departPos="231.67" arrival="152.00" arrivalPos="250.00" duration="15.00" routeLength="18.33" timeLoss="1.80" maxSpeed="1.39"/>
    </personinfo>
    <personinfo id="p97" depart="0.00" type="DEFAULT_PEDTYPE">
        <walk depart="0.00" departPos="221.00" arrival="8.00" arrivalPos="226.67" duration="8.00" routeLength="5.67" timeLoss="3.96" maxSpeed="1.40"/>
        <ride waitingTime="68.00" vehicle="bus.2" depart="76.00" arrival="137.00" arrivalPos="231.67" duration="61.00" routeLength="886.67" timeLoss="11.67"/>
        <walk depart="137.00" departPos="231.67" arrival="153.00" arrivalPos="250.00" duration="16.00" routeLength="18.33" timeLoss="2.80" maxSpeed="1.39"/>
    </personinfo>
    <personinfo id="p104" depart="0.00" type="DEFAULT_PEDTYPE">
        <walk depart="0.00" departPos="221.00" arrival="8.00" arrivalPos="226.67" duration="8.00" routeLength="5.67" timeLoss="3.71" maxSpeed="1.32"/>
        <ride waitingTime="25.00" vehicle="bus.1" depart="33.00" arrival="141.00" arrivalPos="231.67" duration="108.00" routeLength="1330.00" timeLoss="17.50"/>
        <walk depart="141.00" departPos="231.67" arrival="156.00" arrivalPos="250.00" duration="15.00" routeLength="18.33" timeLoss="1.80" maxSpeed="1.39"/>
    </personinfo>
    <personinfo id="p116" depart="0.00" type="DEFAULT_PEDTYPE">
        <walk depart="0.00" departPos="221.00" arrival="7.00" arrivalPos="226.67" duration="7.00" routeLength="5.67" timeLoss="2.57" maxSpeed="1.28"/>
        <ride waitingTime="59.00" vehicle="bus.1" depart="66.00" arrival="141.00" arrivalPos="231.67" duration="75.00" routeLength="886.66" timeLoss="11.67"/>
        <walk depart="141.00" departPos="231.67" arrival="157.00" arrivalPos="250.00" duration="16.00" routeLength="18.33" timeLoss="2.80" maxSpeed="1.39"/>
    </personinfo>
    <personinfo id="p10" depart="0.00" type="DEFAULT_PEDTYPE">
        <walk depart="0.00" departPos="221.00" arrival="6.00" arrivalPos="226.67" duration="6.00" routeLength="5.67" timeLoss="1.24" maxSpeed="1.19"/>
        <ride waitingTime="107.00" vehicle="bus.1" depart="113.00" arrival="142.00" arrivalPos="231.67" duration="29.00" routeLength="443.33" timeLoss="5.83"/>
        <walk depart="142.00" departPos="231.67" arrival="157.00" arrivalPos="250.00" duration="15.00" routeLength="18.33" timeLoss="1.80" maxSpeed="1.39"/>
    </personinfo>
    <personinfo id="p115" depart="0.00" type="DEFAULT_PEDTYPE">
        <walk depart="0.00" departPos="221.00" arrival="8.00" arrivalPos="226.67" duration="8.00" routeLength="5.67" timeLoss="4.28" maxSpeed="1.52"/>
        <ride waitingTime="58.00" vehicle="bus.1" depart="66.00" arrival="142.00" arrivalPos="231.67" duration="76.00" routeLength="886.66" timeLoss="11.67"/>
        <walk depart="142.00" departPos="231.67" arrival="158.00" arrivalPos="250.00" duration="16.00" routeLength="18.33" timeLoss="2.80" maxSpeed="1.39"/>
    </personinfo>
    <personinfo id="p7" depart="0.00" type="DEFAULT_PEDTYPE">
        <walk depart="0.00" departPos="221.00" arrival="8.00" arrivalPos="226.67" duration="8.00" routeLength="5.67" timeLoss="4.10" maxSpeed="1.45"/>
        <ride waitingTime="105.00" vehicle="bus.1" depart="113.00" arrival="143.00" arrivalPos="231.67" duration="30.00" routeLength="443.33" timeLoss="5.83"/>
        <walk depart="143.00" departPos="231.67" arrival="159.00" arrivalPos="250.00" duration="16.00" routeLength="18.33" timeLoss="2.80" maxSpeed="1.39"/>
    </personinfo>
    <personinfo id="p9" depart="0.00" type="DEFAULT_PEDTYPE">
        <walk depart="0.00" departPos="221.00" arrival="9.00" arrivalPos="226.67" duration="9.00" routeLength="5.67" timeLoss="4.65" maxSpeed="1.30"/>
        <ride waitingTime="104.00" vehicle="bus.1" depart="113.00" arrival="143.00" arrivalPos="231.67" duration="30.00" routeLength="443.33" timeLoss="5.83"/>
        <walk depart="143.00" departPos="231.67" arrival="160.00" arrivalPos="250.00" duration="17.00" routeLength="18.33" timeLoss="3.80" maxSpeed="1.39"/>
    </personinfo>
    <personinfo id="p21" depart="0.00" type="DEFAULT_PEDTYPE">
        <walk depart="0.00" departPos="221.00" arrival="5.00" arrivalPos="226.67" duration="5.00" routeLength="5.67" timeLoss="0.99" maxSpeed="1.41"/>
        <ride waitingTime="28.00" vehicle="bus.5" depart="33.00" arrival="147.00" arrivalPos="231.67" duration="114.00" routeLength="1330.00" timeLoss="17.50"/>
        <walk depart="147.00" departPos="231.67" arrival="162.00" arrivalPos="250.00" duration="15.00" routeLength="18.33" timeLoss="1.80" maxSpeed="1.39"/>
    </personinfo>
    <personinfo id="p28" depart="0.00" type="DEFAULT_PEDTYPE">
        <walk depart="0.00" departPos="221.00" arrival="9.00" arrivalPos="226.67" duration="9.00" routeLength="5.67" timeLoss="4.70" maxSpeed="1.32"/>
        <ride waitingTime="24.00" vehicle="bus.5" depart="33.00" arrival="148.00" arrivalPos="231.67" duration="115.00" routeLength="1330.00" timeLoss="17.50"/>
        <walk depart="148.00" departPos="231.67" arrival="163.00" arrivalPos="250.00" duration="15.00" routeLength="18.33" timeLoss="1.80" maxSpeed="1.39"/>
    </personinfo>
    <personinfo id="p32" depart="0.00" type="DEFAULT_PEDTYPE">
        <walk depart="0.00" departPos="221.00" arrival="5.00" arrivalPos="226.67" duration="5.00" routeLength="5.67" timeLoss="1.46" maxSpeed="1.60"/>
        <ride waitingTime="71.00" vehicle="bus.5" depart="76.00" arrival="148.00" arrivalPos="231.67" duration="72.00" routeLength="886.67" timeLoss="11.67"/>
        <walk depart="148.00" departPos="231.67" arrival="164.00" arrivalPos="250.00" duration="16.00" routeLength="18.33" timeLoss="2.80" maxSpeed="1.39"/>
    </personinfo>
    <personinfo id="p35" depart="0.00" type="DEFAULT_PEDTYPE">
        <walk depart="0.00" departPos="221.00" arrival="6.00" arrivalPos="226.67" duration="6.00" routeLength="5.67" timeLoss="1.90" maxSpeed="1.38"/>
        <ride waitingTime="70.00" vehicle="bus.5" depart="76.00" arrival="149.00" arrivalPos="231.67" duration="73.00" routeLength="886.67" timeLoss="11.67"/>
        <walk depart="149.00" departPos="231.67" arrival="164.00" arrivalPos="250.00" duration="15.00" routeLength="18.33" timeLoss="1.80" maxSpeed="1.39"/>
    </personinfo>
    <personinfo id="p45" depart="0.00" type="DEFAULT_PEDTYPE">
        <walk depart="0.00" departPos="221.00" arrival="9.00" arrivalPos="226.67" duration="9.00" routeLength="5.67" timeLoss="5.09" maxSpeed="1.45"/>
        <ride waitingTime="24.00" vehicle="bus.4" depart="33.00" arrival="149.00" arrivalPos="231.67" duration="116.00" routeLength="1330.00" timeLoss="17.50"/>
        <walk depart="149.00" departPos="231.67" arrival="164.00" arrivalPos="250.00" duration="15.00" routeLength="18.33" timeLoss="1.80" maxSpeed="1.39"/>
    </personinfo>
    <personinfo id="p59" depart="0.00" type="DEFAULT_PEDTYPE">
        <walk depart="0.00" departPos="221.00" arrival="12.00" arrivalPos="226.67" duration="12.00" routeLength="5.67" timeLoss="8.01" maxSpeed="1.42"/>
        <ride waitingTime="64.00" vehicle="bus.4" depart="76.00" arrival="149.00" arrivalPos="231.67" duration="73.00" routeLength="886.66" timeLoss="11.67"/>
        <walk depart="149.00" departPos="231.67" arrival="165.00" arrivalPos="250.00" duration="16.00" routeLength="18.33" timeLoss="2.80" maxSpeed="1.39"/>
    </personinfo>
    <personinfo id="p72" depart="0.00" type="DEFAULT_PEDTYPE">
        <walk depart="0.00" departPos="221.00" arrival="6.00" arrivalPos="226.67" duration="6.00" routeLength="5.67" timeLoss="1.80" maxSpeed="1.35"/>
        <ride waitingTime="70.00" vehicle="bus.3" depart="76.00" arrival="177.00" arrivalPos="231.67" duration="101.00" routeLength="1330.00" timeLoss="17.50"/>
        <walk depart="177.00" departPos="231.67" arrival="192.00" arrivalPos="250.00" duration="15.00" routeLength="18.33" timeLoss="1.80" maxSpeed="1.39"/>
    </personinfo>
    <personinfo id="p12" depart="0.00" type="DEFAULT_PEDTYPE">
        <walk depart="0.00" departPos="221.00" arrival="5.00" arrivalPos="226.67" duration="5.00" routeLength="5.67" timeLoss="1.02" maxSpeed="1.43"/>
        <ride waitingTime="54.00" vehicle="bus.0" depart="59.00" arrival="180.00" arrivalPos="231.67" duration="121.00" routeLength="1330.00" timeLoss="17.50"/>
        <walk depart="180.00" departPos="231.67" arrival="195.00" arrivalPos="250.00" duration="15.00" routeLength="18.33" timeLoss="1.80" maxSpeed="1.39"/>
    </personinfo>
    <personinfo id="p90" depart="0.00" type="DEFAULT_PEDTYPE">
        <walk depart="0.00" departPos="221.00" arrival="10.00" arrivalPos="226.67" duration="10.00" routeLength="5.67" timeLoss="6.01" maxSpeed="1.42"/>
        <ride waitingTime="23.00" vehicle="bus.2" depart="33.00" arrival="183.00" arrivalPos="231.67" duration="150.00" routeLength="1773.33" timeLoss="23.33"/>
        <walk depart="183.00" departPos="231.67" arrival="198.00" arrivalPos="250.00" duration="15.00" routeLength="18.33" timeLoss="1.80" maxSpeed="1.39"/>
    </personinfo>
    <personinfo id="p98" depart="0.00" type="DEFAULT_PEDTYPE">
        <walk depart="0.00" departPos="221.00" arrival="10.00" arrivalPos="226.67" duration="10.00" routeLength="5.67" timeLoss="5.50" maxSpeed="1.26"/>
        <ride waitingTime="66.00" vehicle="bus.2" depart="76.00" arrival="183.00" arrivalPos="231.67" duration="107.00" routeLength="1330.00" timeLoss="17.50"/>
        <walk depart="183.00" departPos="231.67" arrival="199.00" arrivalPos="250.00" duration="16.00" routeLength="18.33" timeLoss="2.80" maxSpeed="1.39"/>
    </personinfo>
    <personinfo id="p94" depart="0.00" type="DEFAULT_PEDTYPE">
        <walk depart="0.00" departPos="221.00" arrival="7.00" arrivalPos="226.67" duration="7.00" routeLength="5.67" timeLoss="2.57" maxSpeed="1.28"/>
        <ride waitingTime="69.00" vehicle="bus.2" depart="76.00" arrival="183.00" arrivalPos="231.67" duration="107.00" routeLength="1330.00" timeLoss="17.50"/>
        <walk depart="183.00" departPos="231.67" arrival="199.00" arrivalPos="250.00" duration="16.00" routeLength="18.33" timeLoss="2.80" maxSpeed="1.39"/>
    </personinfo>