<?xml version="1.0" encoding="UTF-8"?>

<!-- generated on 2023-04-18 23:58:50 by Eclipse SUMO GUI Version 1.14.1
<configuration xmlns:xsi="http://www.w3.org/2001/XMLSchema-instance" xsi:noNamespaceSchemaLocation="http://sumo.dlr.de/xsd/sumoConfiguration.xsd">

    <input>
        <net-file value="ring.net.xml"/>
        <additional-files value="ring.add.xml,persons.add.xml"/>
    </input>

    <output>
        <tripinfo-output value="tripinfo.xml"/>
    </output>

    <processing>
        <no-internal-links value="false"/>
        <lanechange.overtake-right value="true"/>
    </processing>

    <report>
        <no-warnings value="true"/>
    </report>

    <traci_server>
        <remote-port value="59268"/>
    </traci_server>

</configuration>
-->

<tripinfos xmlns:xsi="http://www.w3.org/2001/XMLSchema-instance" xsi:noNamespaceSchemaLocation="http://sumo.dlr.de/xsd/tripinfo_file.xsd">
    <personinfo id="p104" depart="0.00" type="DEFAULT_PEDTYPE">
        <walk depart="0.00" departPos="221.00" arrival="8.00" arrivalPos="226.67" duration="8.00" routeLength="5.67" timeLoss="3.71" maxSpeed="1.32"/>
        <ride waitingTime="16.00" vehicle="bus.1" depart="24.00" arrival="59.00" arrivalPos="231.67" duration="35.00" routeLength="443.34" timeLoss="4.41"/>
        <walk depart="59.00" departPos="231.67" arrival="74.00" arrivalPos="250.00" duration="15.00" routeLength="18.33" timeLoss="1.80" maxSpeed="1.39"/>
    </personinfo>
    <personinfo id="p109" depart="0.00" type="DEFAULT_PEDTYPE">
        <walk depart="0.00" departPos="221.00" arrival="10.00" arrivalPos="226.67" duration="10.00" routeLength="5.67" timeLoss="6.17" maxSpeed="1.48"/>
        <ride waitingTime="14.00" vehicle="bus.1" depart="24.00" arrival="60.00" arrivalPos="231.67" duration="36.00" routeLength="443.34" timeLoss="4.41"/>
        <walk depart="60.00" departPos="231.67" arrival="75.00" arrivalPos="250.00" duration="15.00" routeLength="18.33" timeLoss="1.80" maxSpeed="1.39"/>
    </personinfo>
    <personinfo id="p110" depart="0.00" type="DEFAULT_PEDTYPE">
        <walk depart="0.00" departPos="221.00" arrival="9.00" arrivalPos="226.67" duration="9.00" routeLength="5.67" timeLoss="4.75" maxSpeed="1.33"/>
        <ride waitingTime="15.00" vehicle="bus.1" depart="24.00" arrival="60.00" arrivalPos="231.67" duration="36.00" routeLength="443.34" timeLoss="4.41"/>
        <walk depart="60.00" departPos="231.67" arrival="76.00" arrivalPos="250.00" duration="16.00" routeLength="18.33" timeLoss="2.80" maxSpeed="1.39"/>
    </personinfo>
    <personinfo id="p107" depart="0.00" type="DEFAULT_PEDTYPE">
        <walk depart="0.00" departPos="221.00" arrival="10.00" arrivalPos="226.67" duration="10.00" routeLength="5.67" timeLoss="5.97" maxSpeed="1.41"/>
        <ride waitingTime="14.00" vehicle="bus.1" depart="24.00" arrival="61.00" arrivalPos="231.67" duration="37.00" routeLength="443.34" timeLoss="4.41"/>
        <walk depart="61.00" departPos="231.67" arrival="77.00" arrivalPos="250.00" duration="16.00" routeLength="18.33" timeLoss="2.80" maxSpeed="1.39"/>
    </personinfo>
    <personinfo id="p81" depart="0.00" type="DEFAULT_PEDTYPE">
        <walk depart="0.00" departPos="221.00" arrival="5.00" arrivalPos="226.67" duration="5.00" routeLength="5.67" timeLoss="1.05" maxSpeed="1.44"/>
        <ride waitingTime="29.00" vehicle="bus.2" depart="34.00" arrival="69.00" arrivalPos="231.67" duration="35.00" routeLength="443.33" timeLoss="4.41"/>
        <walk depart="69.00" departPos="231.67" arrival="84.00" arrivalPos="250.00" duration="15.00" routeLength="18.33" timeLoss="1.80" maxSpeed="1.39"/>
    </personinfo>
    <personinfo id="p22" depart="0.00" type="DEFAULT_PEDTYPE">
        <walk depart="0.00" departPos="221.00" arrival="6.00" arrivalPos="226.67" duration="6.00" routeLength="5.67" timeLoss="1.96" maxSpeed="1.40"/>
        <ride waitingTime="28.00" vehicle="bus.5" depart="34.00" arrival="70.00" arrivalPos="231.67" duration="36.00" routeLength="443.33" timeLoss="4.41"/>
        <walk depart="70.00" departPos="231.67" arrival="85.00" arrivalPos="250.00" duration="15.00" routeLength="18.33" timeLoss="1.80" maxSpeed="1.39"/>
    </personinfo>
    <personinfo id="p67" depart="0.00" type="DEFAULT_PEDTYPE">
        <walk depart="0.00" departPos="221.00" arrival="8.00" arrivalPos="226.67" duration="8.00" routeLength="5.67" timeLoss="3.50" maxSpeed="1.26"/>
        <ride waitingTime="26.00" vehicle="bus.3" depart="34.00" arrival="70.00" arrivalPos="231.67" duration="36.00" routeLength="443.33" timeLoss="4.41"/>
        <walk depart="70.00" departPos="231.67" arrival="85.00" arrivalPos="250.00" duration="15.00" routeLength="18.33" timeLoss="1.80" maxSpeed="1.39"/>
    </personinfo>
    <personinfo id="p83" depart="0.00" type="DEFAULT_PEDTYPE">
        <walk depart="0.00" departPos="221.00" arrival="7.00" arrivalPos="226.67" duration="7.00" routeLength="5.67" timeLoss="2.99" maxSpeed="1.41"/>
        <ride waitingTime="27.00" vehicle="bus.2" depart="34.00" arrival="70.00" arrivalPos="231.67" duration="36.00" routeLength="443.33" timeLoss="4.41"/>
        <walk depart="70.00" departPos="231.67" arrival="85.00" arrivalPos="250.00" duration="15.00" routeLength="18.33" timeLoss="1.80" maxSpeed="1.39"/>
    </personinfo>
    <personinfo id="p24" depart="0.00" type="DEFAULT_PEDTYPE">
        <walk depart="0.00" departPos="221.00" arrival="8.00" arrivalPos="226.67" duration="8.00" routeLength="5.67" timeLoss="3.41" maxSpeed="1.24"/>
        <ride waitingTime="26.00" vehicle="bus.5" depart="34.00" arrival="70.00" arrivalPos="231.67" duration="36.00" routeLength="443.33" timeLoss="4.41"/>
        <walk depart="70.00" departPos="231.67" arrival="86.00" arrivalPos="250.00" duration="16.00" routeLength="18.33" timeLoss="2.80" maxSpeed="1.39"/>
    </personinfo>
    <personinfo id="p25" depart="0.00" type="DEFAULT_PEDTYPE">
        <walk depart="0.00" departPos="221.00" arrival="8.00" arrivalPos="226.67" duration="8.00" routeLength="5.67" timeLoss="3.06" maxSpeed="1.15"/>
        <ride waitingTime="26.00" vehicle="bus.5" depart="34.00" arrival="71.00" arrivalPos="231.67" duration="37.00" routeLength="443.33" timeLoss="4.41"/>
        <walk depart="71.00" departPos="231.67" arrival="86.00" arrivalPos="250.00" duration="15.00" routeLength="18.33" timeLoss="1.80" maxSpeed="1.39"/>
    </personinfo>
    <personinfo id="p85" depart="0.00" type="DEFAULT_PEDTYPE">
        <walk depart="0.00" departPos="221.00" arrival="8.00" arrivalPos="226.67" duration="8.00" routeLength="5.67" timeLoss="4.44" maxSpeed="1.59"/>
        <ride waitingTime="26.00" vehicle="bus.2" depart="34.00" arrival="70.00" arrivalPos="231.67" duration="36.00" routeLength="443.33" timeLoss="4.41"/>
        <walk depart="70.00" departPos="231.67" arrival="86.00" arrivalPos="250.00" duration="16.00" routeLength="18.33" timeLoss="2.80" maxSpeed="1.39"/>
    </personinfo>
    <personinfo id="p88" depart="0.00" type="DEFAULT_PEDTYPE">
        <walk depart="0.00" departPos="221.00" arrival="10.00" arrivalPos="226.67" duration="10.00" routeLength="5.67" timeLoss="6.09" maxSpeed="1.45"/>
        <ride waitingTime="24.00" vehicle="bus.2" depart="34.00" arrival="71.00" arrivalPos="231.67" duration="37.00" routeLength="443.33" timeLoss="4.41"/>
        <walk depart="71.00" departPos="231.67" arrival="86.00" arrivalPos="250.00" duration="15.00" routeLength="18.33" timeLoss="1.80" maxSpeed="1.39"/>
    </personinfo>
    <personinfo id="p11" depart="0.00" type="DEFAULT_PEDTYPE">
        <walk depart="0.00" departPos="221.00" arrival="4.00" arrivalPos="226.67" duration="4.00" routeLength="5.67" timeLoss="0.26" maxSpeed="1.51"/>
        <ride waitingTime="47.00" vehicle="bus.0" depart="51.00" arrival="82.00" arrivalPos="231.67" duration="31.00" routeLength="443.34" timeLoss="4.41"/>
        <walk depart="82.00" departPos="231.67" arrival="97.00" arrivalPos="250.00" duration="15.00" routeLength="18.33" timeLoss="1.80" maxSpeed="1.39"/>
    </personinfo>
    <personinfo id="pStop2.0" depart="1.58" type="DEFAULT_PEDTYPE">
        <walk depart="2.00" departPos="200.00" arrival="21.00" arrivalPos="226.67" duration="19.00" routeLength="26.67" timeLoss="2.40" maxSpeed="1.61"/>
        <ride waitingTime="30.00" vehicle="bus.0" depart="51.00" arrival="82.00" arrivalPos="231.67" duration="31.00" routeLength="443.34" timeLoss="4.41"/>
        <walk depart="82.00" departPos="231.67" arrival="98.00" arrivalPos="250.00" duration="16.00" routeLength="18.33" timeLoss="2.80" maxSpeed="1.39"/>
    </personinfo>
    <personinfo id="p113" depart="0.00" type="DEFAULT_PEDTYPE">
        <walk depart="0.00" departPos="221.00" arrival="6.00" arrivalPos="226.67" duration="6.00" routeLength="5.67" timeLoss="2.28" maxSpeed="1.53"/>
        <ride waitingTime="56.00" vehicle="bus.1" depart="62.00" arrival="97.00" arrivalPos="231.67" duration="35.00" routeLength="443.33" timeLoss="4.41"/>
        <walk depart="97.00" departPos="231.67" arrival="112.00" arrivalPos="250.00" duration="15.00" routeLength="18.33" timeLoss="1.80" maxSpeed="1.39"/>
    </personinfo>
    <personinfo id="p99" depart="0.00" type="DEFAULT_PEDTYPE">
        <walk depart="0.00" departPos="221.00" arrival="8.00" arrivalPos="226.67" duration="8.00" routeLength="5.67" timeLoss="4.36" maxSpeed="1.56"/>
        <ride waitingTime="64.00" vehicle="bus.2" depart="72.00" arrival="103.00" arrivalPos="231.67" duration="31.00" routeLength="443.33" timeLoss="4.41"/>
        <walk depart="103.00" departPos="231.67" arrival="118.00" arrivalPos="250.00" duration="15.00" routeLength="18.33" timeLoss="1.80" maxSpeed="1.39"/>
    </personinfo>
    <personinfo id="p27" depart="0.00" type="DEFAULT_PEDTYPE">
        <walk depart="0.00" departPos="221.00" arrival="9.00" arrivalPos="226.67" duration="9.00" routeLength="5.67" timeLoss="4.55" maxSpeed="1.27"/>
        <ride waitingTime="25.00" vehicle="bus.5" depart="34.00" arrival="111.00" arrivalPos="231.67" duration="77.00" routeLength="886.66" timeLoss="8.81"/>
        <walk depart="111.00" departPos="231.67" arrival="126.00" arrivalPos="250.00" duration="15.00" routeLength="18.33" timeLoss="1.80" maxSpeed="1.39"/>
    </personinfo>
    <personinfo id="p61" depart="0.00" type="DEFAULT_PEDTYPE">
        <walk depart="0.00" departPos="221.00" arrival="5.00" arrivalPos="226.67" duration="5.00" routeLength="5.67" timeLoss="1.23" maxSpeed="1.50"/>
        <ride waitingTime="29.00" vehicle="bus.3" depart="34.00" arrival="111.00" arrivalPos="231.67" duration="77.00" routeLength="886.67" timeLoss="8.81"/>
        <walk depart="111.00" departPos="231.67" arrival="126.00" arrivalPos="250.00" duration="15.00" routeLength="18.33" timeLoss="1.80" maxSpeed="1.39"/>
    </personinfo>
    <personinfo id="p31" depart="0.00" type="DEFAULT_PEDTYPE">
        <walk depart="0.00" departPos="221.00" arrival="4.00" arrivalPos="226.67" duration="4.00" routeLength="5.67" timeLoss="0.54" maxSpeed="1.64"/>
        <ride waitingTime="76.00" vehicle="bus.5" depart="80.00" arrival="111.00" arrivalPos="231.67" duration="31.00" routeLength="443.33" timeLoss="4.41"/>
        <walk depart="111.00" departPos="231.67" arrival="127.00" arrivalPos="250.00" duration="16.00" routeLength="18.33" timeLoss="2.80" maxSpeed="1.39"/>
    </personinfo>
    <personinfo id="p34" depart="0.00" type="DEFAULT_PEDTYPE">
        <walk depart="0.00" departPos="221.00" arrival="7.00" arrivalPos="226.67" duration="7.00" routeLength="5.67" timeLoss="3.52" maxSpeed="1.63"/>
        <ride waitingTime="73.00" vehicle="bus.5" depart="80.00" arrival="111.00" arrivalPos="231.67" duration="31.00" routeLength="443.33" timeLoss="4.41"/>
        <walk depart="111.00" departPos="231.67" arrival="127.00" arrivalPos="250.00" duration="16.00" routeLength="18.33" timeLoss="2.80" maxSpeed="1.39"/>
    </personinfo>
    <personinfo id="pStop4.0" depart="33.63" type="DEFAULT_PEDTYPE">
        <walk depart="34.00" departPos="200.00" arrival="55.00" arrivalPos="226.67" duration="21.00" routeLength="26.67" timeLoss="3.03" maxSpeed="1.48"/>
        <ride waitingTime="25.00" vehicle="bus.5" depart="80.00" arrival="112.00" arrivalPos="231.67" duration="32.00" routeLength="443.33" timeLoss="4.41"/>
        <walk depart="112.00" departPos="231.67" arrival="127.00" arrivalPos="250.00" duration="15.00" routeLength="18.33" timeLoss="1.80" maxSpeed="1.39"/>
    </personinfo>
    <personinfo id="p45" depart="0.00" type="DEFAULT_PEDTYPE">
        <walk depart="0.00" departPos="221.00" arrival="9.00" arrivalPos="226.67" duration="9.00" routeLength="5.67" timeLoss="5.09" maxSpeed="1.45"/>
        <ride waitingTime="25.00" vehicle="bus.4" depart="34.00" arrival="112.00" arrivalPos="231.67" duration="78.00" routeLength="886.67" timeLoss="8.81"/>
        <walk depart="112.00" departPos="231.67" arrival="127.00" arrivalPos="250.00" duration="15.00" routeLength="18.33" timeLoss="1.80" maxSpeed="1.39"/>
    </personinfo>
    <personinfo id="p62" depart="0.00" type="DEFAULT_PEDTYPE">
        <walk depart="0.00" departPos="221.00" arrival="7.00" arrivalPos="226.67" duration="7.00" routeLength="5.67" timeLoss="3.35" maxSpeed="1.55"/>
        <ride waitingTime="27.00" vehicle="bus.3" depart="34.00" arrival="111.00" arrivalPos="231.67" duration="77.00" routeLength="886.67" timeLoss="8.81"/>
        <walk depart="111.00" departPos="231.67" arrival="127.00" arrivalPos="250.00" duration="16.00" routeLength="18.33" timeLoss="2.80" maxSpeed="1.39"/>
    </personinfo>
    <personinfo id="p63" depart="0.00" type="DEFAULT_PEDTYPE">
        <walk depart="0.00" departPos="221.00" arrival="6.00" arrivalPos="226.67" duration="6.00" routeLength="5.67" timeLoss="1.98" maxSpeed="1.41"/>
        <ride waitingTime="28.00" vehicle="bus.3" depart="34.00" arrival="111.00" arrivalPos="231.67" duration="77.00" routeLength="886.67" timeLoss="8.81"/>
        <walk depart="111.00" departPos="231.67" arrival="127.00" arrivalPos="250.00" duration="16.00" routeLength="18.33" timeLoss="2.80" maxSpeed="1.39"/>
    </personinfo>
    <personinfo id="pStop7.0" depart="9.04" type="DEFAULT_PEDTYPE">
        <walk depart="10.00" departPos="200.00" arrival="32.00" arrivalPos="226.67" duration="22.00" routeLength="26.67" timeLoss="2.09" maxSpeed="1.34"/>
        <ride waitingTime="2.00" vehicle="bus.3" depart="34.00" arrival="112.00" arrivalPos="231.67" duration="78.00" routeLength="886.67" timeLoss="8.81"/>
        <walk depart="112.00" departPos="231.67" arrival="127.00" arrivalPos="250.00" duration="15.00" routeLength="18.33" timeLoss="1.80" maxSpeed="1.39"/>
    </personinfo>
    <personinfo id="p75" depart="0.00" type="DEFAULT_PEDTYPE">
        <walk depart="0.00" departPos="221.00" arrival="7.00" arrivalPos="226.67" duration="7.00" routeLength="5.67" timeLoss="2.73" maxSpeed="1.33"/>
        <ride waitingTime="73.00" vehicle="bus.3" depart="80.00" arrival="113.00" arrivalPos="231.67" duration="33.00" routeLength="443.34" timeLoss="4.41"/>
        <walk depart="113.00" departPos="231.67" arrival="128.00" arrivalPos="250.00" duration="15.00" routeLength="18.33" timeLoss="1.80" maxSpeed="1.39"/>
    </personinfo>
    <personinfo id="p13" depart="0.00" type="DEFAULT_PEDTYPE">
        <walk depart="0.00" departPos="221.00" arrival="6.00" arrivalPos="226.67" duration="6.00" routeLength="5.67" timeLoss="2.10" maxSpeed="1.45"/>
        <ride waitingTime="45.00" vehicle="bus.0" depart="51.00" arrival="116.00" arrivalPos="231.67" duration="65.00" routeLength="886.67" timeLoss="8.81"/>
        <walk depart="116.00" departPos="231.67" arrival="131.00" arrivalPos="250.00" duration="15.00" routeLength="18.33" timeLoss="1.80" maxSpeed="1.39"/>
    </personinfo>
    <personinfo id="p18" depart="0.00" type="DEFAULT_PEDTYPE">
        <walk depart="0.00" departPos="221.00" arrival="9.00" arrivalPos="226.67" duration="9.00" routeLength="5.67" timeLoss="4.66" maxSpeed="1.31"/>
        <ride waitingTime="42.00" vehicle="bus.0" depart="51.00" arrival="116.00" arrivalPos="231.67" duration="65.00" routeLength="886.67" timeLoss="8.81"/>
        <walk depart="116.00" departPos="231.67" arrival="132.00" arrivalPos="250.00" duration="16.00" routeLength="18.33" timeLoss="2.80" maxSpeed="1.39"/>
    </personinfo>
    <personinfo id="p20" depart="0.00" type="DEFAULT_PEDTYPE">
        <walk depart="0.00" departPos="221.00" arrival="9.00" arrivalPos="226.67" duration="9.00" routeLength="5.67" timeLoss="5.48" maxSpeed="1.61"/>
        <ride waitingTime="42.00" vehicle="bus.0" depart="51.00" arrival="116.00" arrivalPos="231.67" duration="65.00" routeLength="886.67" timeLoss="8.81"/>
        <walk depart="116.00" departPos="231.67" arrival="132.00" arrivalPos="250.00" duration="16.00" routeLength="18.33" timeLoss="2.80" maxSpeed="1.39"/>
    </personinfo>
    <personinfo id="p101" depart="0.00" type="DEFAULT_PEDTYPE">
        <walk depart="0.00" departPos="221.00" arrival="5.00" arrivalPos="226.67" duration="5.00" routeLength="5.67" timeLoss="1.17" maxSpeed="1.48"/>
        <ride waitingTime="19.00" vehicle="bus.1" depart="24.00" arrival="130.00" arrivalPos="231.67" duration="106.00" routeLength="1330.00" timeLoss="13.22"/>
        <walk depart="130.00" departPos="231.67" arrival="145.00" arrivalPos="250.00" duration="15.00" routeLength="18.33" timeLoss="1.80" maxSpeed="1.39"/>
    </personinfo>
    <personinfo id="p103" depart="0.00" type="DEFAULT_PEDTYPE">
        <walk depart="0.00" departPos="221.00" arrival="7.00" arrivalPos="226.67" duration="7.00" routeLength="5.67" timeLoss="2.78" maxSpeed="1.34"/>
        <ride waitingTime="17.00" vehicle="bus.1" depart="24.00" arrival="130.00" arrivalPos="231.67" duration="106.00" routeLength="1330.00" timeLoss="13.22"/>
        <walk depart="130.00" departPos="231.67" arrival="146.00" arrivalPos="250.00" duration="16.00" routeLength="18.33" timeLoss="2.80" maxSpeed="1.39"/>
    </personinfo>
    <personinfo id="p87" depart="0.00" type="DEFAULT_PEDTYPE">
        <walk depart="0.00" departPos="221.00" arrival="9.00" arrivalPos="226.67" duration="9.00" routeLength="5.67" timeLoss="4.93" maxSpeed="1.39"/>
        <ride waitingTime="25.00" vehicle="bus.2" depart="34.00" arrival="137.00" arrivalPos="231.67" duration="103.00" routeLength="1330.00" timeLoss="13.22"/>
        <walk depart="137.00" departPos="231.67" arrival="153.00" arrivalPos="250.00" duration="16.00" routeLength="18.33" timeLoss="2.80" maxSpeed="1.39"/>
    </personinfo>
    <personinfo id="p89" depart="0.00" type="DEFAULT_PEDTYPE">
        <walk depart="0.00" departPos="221.00" arrival="9.00" arrivalPos="226.67" duration="9.00" routeLength="5.67" timeLoss="4.95" maxSpeed="1.40"/>
        <ride waitingTime="25.00" vehicle="bus.2" depart="34.00" arrival="137.00" arrivalPos="231.67" duration="103.00" routeLength="1330.00" timeLoss="13.22"/>
        <walk depart="137.00" departPos="231.67" arrival="153.00" arrivalPos="250.00" duration="16.00" routeLength="18.33" timeLoss="2.80" maxSpeed="1.39"/>
    </personinfo>
    <personinfo id="p100" depart="0.00" type="DEFAULT_PEDTYPE">
        <walk depart="0.00" departPos="221.00" arrival="5.00" arrivalPos="226.67" duration="5.00" routeLength="5.67" timeLoss="1.28" maxSpeed="1.52"/>
        <ride waitingTime="67.00" vehicle="bus.2" depart="72.00" arrival="138.00" arrivalPos="231.67" duration="66.00" routeLength="886.67" timeLoss="8.81"/>
        <walk depart="138.00" departPos="231.67" arrival="154.00" arrivalPos="250.00" duration="16.00" routeLength="18.33" timeLoss="2.80" maxSpeed="1.39"/>
    </personinfo>
    <personinfo id="p91" depart="0.00" type="DEFAULT_PEDTYPE">
        <walk depart="0.00" departPos="221.00" arrival="6.00" arrivalPos="226.67" duration="6.00" routeLength="5.67" timeLoss="1.99" maxSpeed="1.41"/>
        <ride waitingTime="66.00" vehicle="bus.2" depart="72.00" arrival="138.00" arrivalPos="231.67" duration="66.00" routeLength="886.67" timeLoss="8.81"/>
        <walk depart="138.00" departPos="231.67" arrival="154.00" arrivalPos="250.00" duration="16.00" routeLength="18.33" timeLoss="2.80" maxSpeed="1.39"/>
    </personinfo>
    <personinfo id="p98" depart="0.00" type="DEFAULT_PEDTYPE">
        <walk depart="0.00" departPos="221.00" arrival="10.00" arrivalPos="226.67" duration="10.00" routeLength="5.67" timeLoss="5.50" maxSpeed="1.26"/>
        <ride waitingTime="62.00" vehicle="bus.2" depart="72.00" arrival="139.00" arrivalPos="231.67" duration="67.00" routeLength="886.67" timeLoss="8.81"/>
        <walk depart="139.00" departPos="231.67" arrival="155.00" arrivalPos="250.00" duration="16.00" routeLength="18.33" timeLoss="2.80" maxSpeed="1.39"/>
    </personinfo>
    <personinfo id="pStop11.0" depart="15.10" type="DEFAULT_PEDTYPE">
        <walk depart="16.00" departPos="200.00" arrival="37.00" arrivalPos="226.67" duration="21.00" routeLength="26.67" timeLoss="2.39" maxSpeed="1.43"/>
        <ride waitingTime="69.00" vehicle="bus.2" depart="106.00" arrival="139.00" arrivalPos="231.67" duration="33.00" routeLength="443.34" timeLoss="4.41"/>
        <walk depart="139.00" departPos="231.67" arrival="155.00" arrivalPos="250.00" duration="16.00" routeLength="18.33" timeLoss="2.80" maxSpeed="1.39"/>
    </personinfo>
    <personinfo id="p68" depart="0.00" type="DEFAULT_PEDTYPE">
        <walk depart="0.00" departPos="221.00" arrival="8.00" arrivalPos="226.67" duration="8.00" routeLength="5.67" timeLoss="3.54" maxSpeed="1.27"/>
        <ride waitingTime="26.00" vehicle="bus.3" depart="34.00" arrival="145.00" arrivalPos="231.67" duration="111.00" routeLength="1330.00" timeLoss="13.22"/>
        <walk depart="145.00" departPos="231.67" arrival="160.00" arrivalPos="250.00" duration="15.00" routeLength="18.33" timeLoss="1.80" maxSpeed="1.39"/>
    </personinfo>
    <personinfo id="p71" depart="0.00" type="DEFAULT_PEDTYPE">
        <walk depart="0.00" departPos="221.00" arrival="5.00" arrivalPos="226.67" duration="5.00" routeLength="5.67" timeLoss="1.01" maxSpeed="1.42"/>
        <ride waitingTime="75.00" vehicle="bus.3" depart="80.00" arrival="146.00" arrivalPos="231.67" duration="66.00" routeLength="886.67" timeLoss="8.81"/>
        <walk depart="146.00" departPos="231.67" arrival="161.00" arrivalPos="250.00" duration="15.00" routeLength="18.33" timeLoss="1.80" maxSpeed="1.39"/>
    </personinfo>
    <personinfo id="p77" depart="0.00" type="DEFAULT_PEDTYPE">
        <walk depart="0.00" departPos="221.00" arrival="10.00" arrivalPos="226.67" duration="10.00" routeLength="5.67" timeLoss="6.05" maxSpeed="1.43"/>
        <ride waitingTime="70.00" vehicle="bus.3" depart="80.00" arrival="147.00" arrivalPos="231.67" duration="67.00" routeLength="886.67" timeLoss="8.81"/>
        <walk depart="147.00" departPos="231.67" arrival="162.00" arrivalPos="250.00" duration="15.00" routeLength="18.33" timeLoss="1.80" maxSpeed="1.39"/>
    </personinfo>
    <personinfo id="pStop8.0" depart="9.91" type="DEFAULT_PEDTYPE">
        <walk depart="10.00" departPos="200.00" arrival="33.00" arrivalPos="226.67" duration="23.00" routeLength="26.67" timeLoss="3.53" maxSpeed="1.37"/>
        <ride waitingTime="47.00" vehicle="bus.3" depart="80.00" arrival="147.00" arrivalPos="231.67" duration="67.00" routeLength="886.67" timeLoss="8.81"/>
        <walk depart="147.00" departPos="231.67" arrival="162.00" arrivalPos="250.00" duration="15.00" routeLength="18.33" timeLoss="1.80" maxSpeed="1.39"/>
    </personinfo>
    <personinfo id="pStop9.0" depart="86.58" type="DEFAULT_PEDTYPE">
        <walk depart="87.00" departPos="200.00" arrival="112.00" arrivalPos="226.67" duration="25.00" routeLength="26.67" timeLoss="2.85" maxSpeed="1.20"/>
        <ride waitingTime="2.00" vehicle="bus.3" depart="114.00" arrival="148.00" arrivalPos="231.67" duration="34.00" routeLength="443.33" timeLoss="4.41"/>
        <walk depart="148.00" departPos="231.67" arrival="163.00" arrivalPos="250.00" duration="15.00" routeLength="18.33" timeLoss="1.80" maxSpeed="1.39"/>
    </personinfo>
    <personinfo id="p15" depart="0.00" type="DEFAULT_PEDTYPE">
        <walk depart="0.00" departPos="221.00" arrival="7.00" arrivalPos="226.67" duration="7.00" routeLength="5.67" timeLoss="2.88" maxSpeed="1.38"/>
        <ride waitingTime="44.00" vehicle="bus.0" depart="51.00" arrival="150.00" arrivalPos="231.67" duration="99.00" routeLength="1330.00" timeLoss="13.22"/>
        <walk depart="150.00" departPos="231.67" arrival="166.00" arrivalPos="250.00" duration="16.00" routeLength="18.33" timeLoss="2.80" maxSpeed="1.39"/>
    </personinfo>
    <personinfo id="p17" depart="0.00" type="DEFAULT_PEDTYPE">
        <walk depart="0.00" departPos="221.00" arrival="10.00" arrivalPos="226.67" duration="10.00" routeLength="5.67" timeLoss="5.35" maxSpeed="1.22"/>
        <ride waitingTime="41.00" vehicle="bus.0" depart="51.00" arrival="150.00" arrivalPos="231.67" duration="99.00" routeLength="1330.00" timeLoss="13.22"/>
        <walk depart="150.00" departPos="231.67" arrival="166.00" arrivalPos="250.00" duration="16.00" routeLength="18.33" timeLoss="2.80" maxSpeed="1.39"/>
    </personinfo>
    <personinfo id="pStop2.1" depart="21.28" type="DEFAULT_PEDTYPE">
        <walk depart="22.00" departPos="200.00" arrival="43.00" arrivalPos="226.67" duration="21.00" routeLength="26.67" timeLoss="2.23" maxSpeed="1.42"/>
        <ride waitingTime="8.00" vehicle="bus.0" depart="51.00" arrival="151.00" arrivalPos="231.67" duration="100.00" routeLength="1330.00" timeLoss="13.22"/>
        <walk depart="151.00" departPos="231.67" arrival="167.00" arrivalPos="250.00" duration="16.00" routeLength="18.33" timeLoss="2.80" maxSpeed="1.39"/>
    </personinfo>
    <personinfo id="p26" depart="0.00" type="DEFAULT_PEDTYPE">
        <walk depart="0.00" departPos="221.00" arrival="9.00" arrivalPos="226.67" duration="9.00" routeLength="5.67" timeLoss="4.32" maxSpeed="1.21"/>
        <ride waitingTime="25.00" vehicle="bus.5" depart="34.00" arrival="158.00" arrivalPos="231.67" duration="124.00" routeLength="1330.00" timeLoss="13.22"/>
        <walk depart="158.00" departPos="231.67" arrival="173.00" arrivalPos="250.00" duration="15.00" routeLength="18.33" timeLoss="1.80" maxSpeed="1.39"/>
    </personinfo>
    <personinfo id="p29" depart="0.00" type="DEFAULT_PEDTYPE">
        <walk depart="0.00" departPos="221.00" arrival="11.00" arrivalPos="226.67" duration="11.00" routeLength="5.67" timeLoss="7.39" maxSpeed="1.57"/>
        <ride waitingTime="23.00" vehicle="bus.5" depart="34.00" arrival="158.00" arrivalPos="231.67" duration="124.00" routeLength="1330.00" timeLoss="13.22"/>
        <walk depart="158.00" departPos="231.67" arrival="174.00" arrivalPos="250.00" duration="16.00" routeLength="18.33" timeLoss="2.80" maxSpeed="1.39"/>
    </personinfo>
    <personinfo id="p35" depart="0.00" type="DEFAULT_PEDTYPE">
        <walk depart="0.00" departPos="221.00" arrival="6.00" arrivalPos="226.67" duration="6.00" routeLength="5.67" timeLoss="1.90" maxSpeed="1.38"/>
        <ride waitingTime="74.00" vehicle="bus.5" depart="80.00" arrival="159.00" arrivalPos="231.67" duration="79.00" routeLength="886.67" timeLoss="8.81"/>
        <walk depart="159.00" departPos="231.67" arrival="174.00" arrivalPos="250.00" duration="15.00" routeLength="18.33" timeLoss="1.80" maxSpeed="1.39"/>
    </personinfo>
    <personinfo id="p38" depart="0.00" type="DEFAULT_PEDTYPE">
        <walk depart="0.00" departPos="221.00" arrival="10.00" arrivalPos="226.67" duration="10.00" routeLength="5.67" timeLoss="6.54" maxSpeed="1.64"/>
        <ride waitingTime="70.00" vehicle="bus.5" depart="80.00" arrival="159.00" arrivalPos="231.67" duration="79.00" routeLength="886.67" timeLoss="8.81"/>
        <walk depart="159.00" departPos="231.67" arrival="175.00" arrivalPos="250.00" duration="16.00" routeLength="18.33" timeLoss="2.80" maxSpeed="1.39"/>
    </personinfo>
    <personinfo id="p44" depart="0.00" type="DEFAULT_PEDTYPE">
        <walk depart="0.00" departPos="221.00" arrival="5.00" arrivalPos="226.67" duration="5.00" routeLength="5.67" timeLoss="1.07" maxSpeed="1.44"/>
        <ride waitingTime="29.00" vehicle="bus.4" depart="34.00" arrival="159.00" arrivalPos="231.67" duration="125.00" routeLength="1330.00" timeLoss="13.22"/>
        <walk depart="159.00" departPos="231.67" arrival="175.00" arrivalPos="250.00" duration="16.00" routeLength="18.33" timeLoss="2.80" maxSpeed="1.39"/>
    </personinfo>
    <personinfo id="p47" depart="0.00" type="DEFAULT_PEDTYPE">
        <walk depart="0.00" departPos="221.00" arrival="7.00" arrivalPos="226.67" duration="7.00" routeLength="5.67" timeLoss="2.91" maxSpeed="1.39"/>
        <ride waitingTime="27.00" vehicle="bus.4" depart="34.00" arrival="160.00" arrivalPos="231.67" duration="126.00" routeLength="1330.00" timeLoss="13.22"/>
        <walk depart="160.00" departPos="231.67" arrival="176.00" arrivalPos="250.00" duration="16.00" routeLength="18.33" timeLoss="2.80" maxSpeed="1.39"/>
    </personinfo>
    <personinfo id="p48" depart="0.00" type="DEFAULT_PEDTYPE">
        <walk depart="0.00" departPos="221.00" arrival="10.00" arrivalPos="226.67" duration="10.00" routeLength="5.67" timeLoss="5.47" maxSpeed="1.25"/>
        <ride waitingTime="24.00" vehicle="bus.4" depart="34.00" arrival="160.00" arrivalPos="231.67" duration="126.00" routeLength="1330.00" timeLoss="13.22"/>
        <walk depart="160.00" departPos="231.67" arrival="176.00" arrivalPos="250.00" duration="16.00" routeLength="18.33" timeLoss="2.80" maxSpeed="1.39"/>
    </personinfo>
    <personinfo id="p52" depart="0.00" type="DEFAULT_PEDTYPE">
        <walk depart="0.00" departPos="221.00" arrival="7.00" arrivalPos="226.67" duration="7.00" routeLength="5.67" timeLoss="3.51" maxSpeed="1.62"/>
        <ride waitingTime="73.00" vehicle="bus.4" depart="80.00" arrival="161.00" arrivalPos="231.67" duration="81.00" routeLength="886.66" timeLoss="8.81"/>
        <walk depart="161.00" departPos="231.67" arrival="177.00" arrivalPos="250.00" duration="16.00" routeLength="18.33" timeLoss="2.80" maxSpeed="1.39"/>
    </personinfo>