<?xml version="1.0" encoding="UTF-8"?>

<!-- generated on 2022-10-22 19:50:43 by Eclipse SUMO GUI Version 1.14.1
<configuration xmlns:xsi="http://www.w3.org/2001/XMLSchema-instance" xsi:noNamespaceSchemaLocation="http://sumo.dlr.de/xsd/sumoConfiguration.xsd">

    <input>
        <net-file value="demo.net.xml"/>
        <additional-files value="demo.add.xml"/>
    </input>

    <output>
        <tripinfo-output value="tripinfo.xml"/>
    </output>

    <processing>
        <no-internal-links value="false"/>
    </processing>

    <traci_server>
        <remote-port value="56162"/>
    </traci_server>

</configuration>
-->

<tripinfos xmlns:xsi="http://www.w3.org/2001/XMLSchema-instance" xsi:noNamespaceSchemaLocation="http://sumo.dlr.de/xsd/tripinfo_file.xsd">
    <personinfo id="persons.0" depart="0.00" type="DEFAULT_PEDTYPE">
        <walk depart="0.00" departPos="0.00" arrival="14.00" arrivalPos="17.50" duration="14.00" routeLength="17.50" timeLoss="2.11" maxSpeed="1.47"/>
        <ride waitingTime="14.00" vehicle="bus.0" depart="28.00" arrival="39.00" arrivalPos="20.00" duration="11.00" routeLength="93.31" timeLoss="4.49"/>
        <walk depart="39.00" departPos="20.00" arrival="47.00" arrivalPos="30.00" duration="8.00" routeLength="10.00" timeLoss="1.21" maxSpeed="1.47"/>
    </personinfo>
    <personinfo id="persons.1" depart="10.00" type="DEFAULT_PEDTYPE">
        <walk depart="10.00" departPos="0.00" arrival="25.00" arrivalPos="17.50" duration="15.00" routeLength="17.50" timeLoss="1.57" maxSpeed="1.30"/>
        <ride waitingTime="3.00" vehicle="bus.0" depart="28.00" arrival="39.00" arrivalPos="20.00" duration="11.00" routeLength="93.31" timeLoss="4.49"/>
        <walk depart="39.00" departPos="20.00" arrival="48.00" arrivalPos="30.00" duration="9.00" routeLength="10.00" timeLoss="1.33" maxSpeed="1.30"/>
    </personinfo>
    <personinfo id="persons.2" depart="20.00" type="DEFAULT_PEDTYPE">
        <walk depart="20.00" departPos="0.00" arrival="34.00" arrivalPos="17.50" duration="14.00" routeLength="17.50" timeLoss="1.53" maxSpeed="1.40"/>
        <ride waitingTime="59.00" vehicle="bus.0" depart="93.00" arrival="106.00" arrivalPos="20.00" duration="13.00" routeLength="93.36" timeLoss="6.49"/>
        <walk depart="106.00" departPos="20.00" arrival="114.00" arrivalPos="30.00" duration="8.00" routeLength="10.00" timeLoss="0.87" maxSpeed="1.40"/>
    </personinfo>
    <personinfo id="persons.3" depart="30.00" type="DEFAULT_PEDTYPE">
        <walk depart="30.00" departPos="0.00" arrival="43.00" arrivalPos="17.50" duration="13.00" routeLength="17.50" timeLoss="1.36" maxSpeed="1.50"/>
        <ride waitingTime="50.00" vehicle="bus.0" depart="93.00" arrival="106.00" arrivalPos="20.00" duration="13.00" routeLength="93.36" timeLoss="6.49"/>
        <walk depart="106.00" departPos="20.00" arrival="115.00" arrivalPos="30.00" duration="9.00" routeLength="10.00" timeLoss="2.35" maxSpeed="1.50"/>
    </personinfo>
    <personinfo id="persons.4" depart="40.00" type="DEFAULT_PEDTYPE">
        <walk depart="40.00" departPos="0.00" arrival="54.00" arrivalPos="17.50" duration="14.00" routeLength="17.50" timeLoss="1.77" maxSpeed="1.43"/>
        <ride waitingTime="39.00" vehicle="bus.0" depart="93.00" arrival="106.00" arrivalPos="20.00" duration="13.00" routeLength="93.36" timeLoss="6.49"/>
        <walk depart="106.00" departPos="20.00" arrival="115.00" arrivalPos="30.00" duration="9.00" routeLength="10.00" timeLoss="2.01" maxSpeed="1.43"/>
    </personinfo>
    <personinfo id="persons.5" depart="50.00" type="DEFAULT_PEDTYPE">
        <walk depart="50.00" departPos="0.00" arrival="67.00" arrivalPos="17.50" duration="17.00" routeLength="17.50" timeLoss="1.84" maxSpeed="1.15"/>
        <ride waitingTime="26.00" vehicle="bus.0" depart="93.00" arrival="107.00" arrivalPos="20.00" duration="14.00" routeLength="93.31" timeLoss="6.49"/>
        <walk depart="107.00" departPos="20.00" arrival="117.00" arrivalPos="30.00" duration="10.00" routeLength="10.00" timeLoss="1.34" maxSpeed="1.15"/>
    </personinfo>
</tripinfos>
