<?xml version="1.0" encoding="UTF-8"?>

<!-- generated on 2022-11-21 10:27:27 by Eclipse SUMO GUI Version 1.14.1
<configuration xmlns:xsi="http://www.w3.org/2001/XMLSchema-instance" xsi:noNamespaceSchemaLocation="http://sumo.dlr.de/xsd/sumoConfiguration.xsd">

    <input>
        <net-file value="ring.net.xml"/>
        <additional-files value="ring.add.xml,persons.add.xml"/>
    </input>

    <output>
        <tripinfo-output value="tripinfo.xml"/>
    </output>

    <processing>
        <no-internal-links value="false"/>
    </processing>

    <report>
        <no-warnings value="true"/>
    </report>

    <traci_server>
        <remote-port value="60837"/>
    </traci_server>

</configuration>
-->

<tripinfos xmlns:xsi="http://www.w3.org/2001/XMLSchema-instance" xsi:noNamespaceSchemaLocation="http://sumo.dlr.de/xsd/tripinfo_file.xsd">
    <personinfo id="p101" depart="0.00" type="DEFAULT_PEDTYPE">
        <walk depart="0.00" departPos="221.00" arrival="5.00" arrivalPos="226.67" duration="5.00" routeLength="5.67" timeLoss="1.17" maxSpeed="1.48"/>
        <ride waitingTime="29.00" vehicle="bus.1" depart="34.00" arrival="69.00" arrivalPos="231.67" duration="35.00" routeLength="443.34" timeLoss="4.41"/>
        <walk depart="69.00" departPos="231.67" arrival="84.00" arrivalPos="250.00" duration="15.00" routeLength="18.33" timeLoss="1.80" maxSpeed="1.39"/>
    </personinfo>
    <personinfo id="p84" depart="0.00" type="DEFAULT_PEDTYPE">
        <walk depart="0.00" departPos="221.00" arrival="8.00" arrivalPos="226.67" duration="8.00" routeLength="5.67" timeLoss="3.78" maxSpeed="1.34"/>
        <ride waitingTime="26.00" vehicle="bus.2" depart="34.00" arrival="69.00" arrivalPos="231.67" duration="35.00" routeLength="443.33" timeLoss="4.41"/>
        <walk depart="69.00" departPos="231.67" arrival="84.00" arrivalPos="250.00" duration="15.00" routeLength="18.33" timeLoss="1.80" maxSpeed="1.39"/>
    </personinfo>
    <personinfo id="p104" depart="0.00" type="DEFAULT_PEDTYPE">
        <walk depart="0.00" departPos="221.00" arrival="8.00" arrivalPos="226.67" duration="8.00" routeLength="5.67" timeLoss="3.71" maxSpeed="1.32"/>
        <ride waitingTime="26.00" vehicle="bus.1" depart="34.00" arrival="70.00" arrivalPos="231.67" duration="36.00" routeLength="443.34" timeLoss="4.41"/>
        <walk depart="70.00" departPos="231.67" arrival="85.00" arrivalPos="250.00" duration="15.00" routeLength="18.33" timeLoss="1.80" maxSpeed="1.39"/>
    </personinfo>
    <personinfo id="p110" depart="0.00" type="DEFAULT_PEDTYPE">
        <walk depart="0.00" departPos="221.00" arrival="9.00" arrivalPos="226.67" duration="9.00" routeLength="5.67" timeLoss="4.75" maxSpeed="1.33"/>
        <ride waitingTime="25.00" vehicle="bus.1" depart="34.00" arrival="70.00" arrivalPos="231.67" duration="36.00" routeLength="443.34" timeLoss="4.41"/>
        <walk depart="70.00" departPos="231.67" arrival="85.00" arrivalPos="250.00" duration="15.00" routeLength="18.33" timeLoss="1.80" maxSpeed="1.39"/>
    </personinfo>
    <personinfo id="p24" depart="0.00" type="DEFAULT_PEDTYPE">
        <walk depart="0.00" departPos="221.00" arrival="8.00" arrivalPos="226.67" duration="8.00" routeLength="5.67" timeLoss="3.41" maxSpeed="1.24"/>
        <ride waitingTime="26.00" vehicle="bus.5" depart="34.00" arrival="70.00" arrivalPos="231.67" duration="36.00" routeLength="443.33" timeLoss="4.41"/>
        <walk depart="70.00" departPos="231.67" arrival="85.00" arrivalPos="250.00" duration="15.00" routeLength="18.33" timeLoss="1.80" maxSpeed="1.39"/>
    </personinfo>
    <personinfo id="p30" depart="0.00" type="DEFAULT_PEDTYPE">
        <walk depart="0.00" departPos="221.00" arrival="10.00" arrivalPos="226.67" duration="10.00" routeLength="5.67" timeLoss="5.62" maxSpeed="1.29"/>
        <ride waitingTime="24.00" vehicle="bus.5" depart="34.00" arrival="70.00" arrivalPos="231.67" duration="36.00" routeLength="443.33" timeLoss="4.41"/>
        <walk depart="70.00" departPos="231.67" arrival="85.00" arrivalPos="250.00" duration="15.00" routeLength="18.33" timeLoss="1.80" maxSpeed="1.39"/>
    </personinfo>
    <personinfo id="p49" depart="0.00" type="DEFAULT_PEDTYPE">
        <walk depart="0.00" departPos="221.00" arrival="8.00" arrivalPos="226.67" duration="8.00" routeLength="5.67" timeLoss="3.35" maxSpeed="1.22"/>
        <ride waitingTime="26.00" vehicle="bus.4" depart="34.00" arrival="70.00" arrivalPos="231.67" duration="36.00" routeLength="443.34" timeLoss="4.41"/>
        <walk depart="70.00" departPos="231.67" arrival="85.00" arrivalPos="250.00" duration="15.00" routeLength="18.33" timeLoss="1.80" maxSpeed="1.39"/>
    </personinfo>
    <personinfo id="p64" depart="0.00" type="DEFAULT_PEDTYPE">
        <walk depart="0.00" departPos="221.00" arrival="9.00" arrivalPos="226.67" duration="9.00" routeLength="5.67" timeLoss="4.86" maxSpeed="1.37"/>
        <ride waitingTime="25.00" vehicle="bus.3" depart="34.00" arrival="70.00" arrivalPos="231.67" duration="36.00" routeLength="443.33" timeLoss="4.41"/>
        <walk depart="70.00" departPos="231.67" arrival="85.00" arrivalPos="250.00" duration="15.00" routeLength="18.33" timeLoss="1.80" maxSpeed="1.39"/>
    </personinfo>
    <personinfo id="p87" depart="0.00" type="DEFAULT_PEDTYPE">
        <walk depart="0.00" departPos="221.00" arrival="9.00" arrivalPos="226.67" duration="9.00" routeLength="5.67" timeLoss="4.93" maxSpeed="1.39"/>
        <ride waitingTime="25.00" vehicle="bus.2" depart="34.00" arrival="70.00" arrivalPos="231.67" duration="36.00" routeLength="443.33" timeLoss="4.41"/>
        <walk depart="70.00" departPos="231.67" arrival="85.00" arrivalPos="250.00" duration="15.00" routeLength="18.33" timeLoss="1.80" maxSpeed="1.39"/>
    </personinfo>
    <personinfo id="p106" depart="0.00" type="DEFAULT_PEDTYPE">
        <walk depart="0.00" departPos="221.00" arrival="9.00" arrivalPos="226.67" duration="9.00" routeLength="5.67" timeLoss="5.19" maxSpeed="1.49"/>
        <ride waitingTime="25.00" vehicle="bus.1" depart="34.00" arrival="71.00" arrivalPos="231.67" duration="37.00" routeLength="443.34" timeLoss="4.41"/>
        <walk depart="71.00" departPos="231.67" arrival="86.00" arrivalPos="250.00" duration="15.00" routeLength="18.33" timeLoss="1.80" maxSpeed="1.39"/>
    </personinfo>
    <personinfo id="p68" depart="0.00" type="DEFAULT_PEDTYPE">
        <walk depart="0.00" departPos="221.00" arrival="8.00" arrivalPos="226.67" duration="8.00" routeLength="5.67" timeLoss="3.54" maxSpeed="1.27"/>
        <ride waitingTime="26.00" vehicle="bus.3" depart="34.00" arrival="70.00" arrivalPos="231.67" duration="36.00" routeLength="443.33" timeLoss="4.41"/>
        <walk depart="70.00" departPos="231.67" arrival="86.00" arrivalPos="250.00" duration="16.00" routeLength="18.33" timeLoss="2.80" maxSpeed="1.39"/>
    </personinfo>
    <personinfo id="p89" depart="0.00" type="DEFAULT_PEDTYPE">
        <walk depart="0.00" departPos="221.00" arrival="9.00" arrivalPos="226.67" duration="9.00" routeLength="5.67" timeLoss="4.95" maxSpeed="1.40"/>
        <ride waitingTime="25.00" vehicle="bus.2" depart="34.00" arrival="70.00" arrivalPos="231.67" duration="36.00" routeLength="443.33" timeLoss="4.41"/>
        <walk depart="70.00" departPos="231.67" arrival="86.00" arrivalPos="250.00" duration="16.00" routeLength="18.33" timeLoss="2.80" maxSpeed="1.39"/>
    </personinfo>
    <personinfo id="p109" depart="0.00" type="DEFAULT_PEDTYPE">
        <walk depart="0.00" departPos="221.00" arrival="10.00" arrivalPos="226.67" duration="10.00" routeLength="5.67" timeLoss="6.17" maxSpeed="1.48"/>
        <ride waitingTime="24.00" vehicle="bus.1" depart="34.00" arrival="71.00" arrivalPos="231.67" duration="37.00" routeLength="443.34" timeLoss="4.41"/>
        <walk depart="71.00" departPos="231.67" arrival="87.00" arrivalPos="250.00" duration="16.00" routeLength="18.33" timeLoss="2.80" maxSpeed="1.39"/>
    </personinfo>
    <personinfo id="p69" depart="0.00" type="DEFAULT_PEDTYPE">
        <walk depart="0.00" departPos="221.00" arrival="10.00" arrivalPos="226.67" duration="10.00" routeLength="5.67" timeLoss="6.08" maxSpeed="1.44"/>
        <ride waitingTime="24.00" vehicle="bus.3" depart="34.00" arrival="71.00" arrivalPos="231.67" duration="37.00" routeLength="443.33" timeLoss="4.41"/>
        <walk depart="71.00" departPos="231.67" arrival="87.00" arrivalPos="250.00" duration="16.00" routeLength="18.33" timeLoss="2.80" maxSpeed="1.39"/>
    </personinfo>
    <personinfo id="p2" depart="0.00" type="DEFAULT_PEDTYPE">
        <walk depart="0.00" departPos="221.00" arrival="6.00" arrivalPos="226.67" duration="6.00" routeLength="5.67" timeLoss="1.65" maxSpeed="1.30"/>
        <ride waitingTime="32.00" vehicle="bus.0" depart="38.00" arrival="74.00" arrivalPos="231.67" duration="36.00" routeLength="443.33" timeLoss="4.41"/>
        <walk depart="74.00" departPos="231.67" arrival="88.00" arrivalPos="250.00" duration="14.00" routeLength="18.33" timeLoss="0.80" maxSpeed="1.39"/>
    </personinfo>
    <personinfo id="p5" depart="0.00" type="DEFAULT_PEDTYPE">
        <walk depart="0.00" departPos="221.00" arrival="8.00" arrivalPos="226.67" duration="8.00" routeLength="5.67" timeLoss="4.04" maxSpeed="1.43"/>
        <ride waitingTime="30.00" vehicle="bus.0" depart="38.00" arrival="75.00" arrivalPos="231.67" duration="37.00" routeLength="443.33" timeLoss="4.41"/>
        <walk depart="75.00" departPos="231.67" arrival="90.00" arrivalPos="250.00" duration="15.00" routeLength="18.33" timeLoss="1.80" maxSpeed="1.39"/>
    </personinfo>
    <personinfo id="p7" depart="0.00" type="DEFAULT_PEDTYPE">
        <walk depart="0.00" departPos="221.00" arrival="8.00" arrivalPos="226.67" duration="8.00" routeLength="5.67" timeLoss="4.10" maxSpeed="1.45"/>
        <ride waitingTime="30.00" vehicle="bus.0" depart="38.00" arrival="75.00" arrivalPos="231.67" duration="37.00" routeLength="443.33" timeLoss="4.41"/>
        <walk depart="75.00" departPos="231.67" arrival="91.00" arrivalPos="250.00" duration="16.00" routeLength="18.33" timeLoss="2.80" maxSpeed="1.39"/>
    </personinfo>
    <personinfo id="p6" depart="0.00" type="DEFAULT_PEDTYPE">
        <walk depart="0.00" departPos="221.00" arrival="9.00" arrivalPos="226.67" duration="9.00" routeLength="5.67" timeLoss="4.09" maxSpeed="1.15"/>
        <ride waitingTime="29.00" vehicle="bus.0" depart="38.00" arrival="76.00" arrivalPos="231.67" duration="38.00" routeLength="443.33" timeLoss="4.41"/>
        <walk depart="76.00" departPos="231.67" arrival="92.00" arrivalPos="250.00" duration="16.00" routeLength="18.33" timeLoss="2.80" maxSpeed="1.39"/>
    </personinfo>
    <personinfo id="p8" depart="0.00" type="DEFAULT_PEDTYPE">
        <walk depart="0.00" departPos="221.00" arrival="10.00" arrivalPos="226.67" duration="10.00" routeLength="5.67" timeLoss="5.39" maxSpeed="1.23"/>
        <ride waitingTime="28.00" vehicle="bus.0" depart="38.00" arrival="76.00" arrivalPos="231.67" duration="38.00" routeLength="443.33" timeLoss="4.41"/>
        <walk depart="76.00" departPos="231.67" arrival="92.00" arrivalPos="250.00" duration="16.00" routeLength="18.33" timeLoss="2.80" maxSpeed="1.39"/>
    </personinfo>
    <personinfo id="p103" depart="0.00" type="DEFAULT_PEDTYPE">
        <walk depart="0.00" departPos="221.00" arrival="7.00" arrivalPos="226.67" duration="7.00" routeLength="5.67" timeLoss="2.78" maxSpeed="1.34"/>
        <ride waitingTime="27.00" vehicle="bus.1" depart="34.00" arrival="104.00" arrivalPos="231.67" duration="70.00" routeLength="886.67" timeLoss="8.81"/>
        <walk depart="104.00" departPos="231.67" arrival="119.00" arrivalPos="250.00" duration="15.00" routeLength="18.33" timeLoss="1.80" maxSpeed="1.39"/>
    </personinfo>
    <personinfo id="p105" depart="0.00" type="DEFAULT_PEDTYPE">
        <walk depart="0.00" departPos="221.00" arrival="8.00" arrivalPos="226.67" duration="8.00" routeLength="5.67" timeLoss="3.43" maxSpeed="1.24"/>
        <ride waitingTime="26.00" vehicle="bus.1" depart="34.00" arrival="104.00" arrivalPos="231.67" duration="70.00" routeLength="886.67" timeLoss="8.81"/>
        <walk depart="104.00" departPos="231.67" arrival="120.00" arrivalPos="250.00" duration="16.00" routeLength="18.33" timeLoss="2.80" maxSpeed="1.39"/>
    </personinfo>
    <personinfo id="p111" depart="0.00" type="DEFAULT_PEDTYPE">
        <walk depart="0.00" departPos="221.00" arrival="5.00" arrivalPos="226.67" duration="5.00" routeLength="5.67" timeLoss="0.60" maxSpeed="1.29"/>
        <ride waitingTime="68.00" vehicle="bus.1" depart="73.00" arrival="104.00" arrivalPos="231.67" duration="31.00" routeLength="443.33" timeLoss="4.41"/>
        <walk depart="104.00" departPos="231.67" arrival="120.00" arrivalPos="250.00" duration="16.00" routeLength="18.33" timeLoss="2.80" maxSpeed="1.39"/>
    </personinfo>
    <personinfo id="p112" depart="0.00" type="DEFAULT_PEDTYPE">
        <walk depart="0.00" departPos="221.00" arrival="7.00" arrivalPos="226.67" duration="7.00" routeLength="5.67" timeLoss="2.29" maxSpeed="1.20"/>
        <ride waitingTime="66.00" vehicle="bus.1" depart="73.00" arrival="105.00" arrivalPos="231.67" duration="32.00" routeLength="443.33" timeLoss="4.41"/>
        <walk depart="105.00" departPos="231.67" arrival="120.00" arrivalPos="250.00" duration="15.00" routeLength="18.33" timeLoss="1.80" maxSpeed="1.39"/>
    </personinfo>
    <personinfo id="p1" depart="0.00" type="DEFAULT_PEDTYPE">
        <walk depart="0.00" departPos="221.00" arrival="5.00" arrivalPos="226.67" duration="5.00" routeLength="5.67" timeLoss="1.15" maxSpeed="1.47"/>
        <ride waitingTime="33.00" vehicle="bus.0" depart="38.00" arrival="109.00" arrivalPos="231.67" duration="71.00" routeLength="886.67" timeLoss="8.81"/>
        <walk depart="109.00" departPos="231.67" arrival="124.00" arrivalPos="250.00" duration="15.00" routeLength="18.33" timeLoss="1.80" maxSpeed="1.39"/>
    </personinfo>
    <personinfo id="p25" depart="0.00" type="DEFAULT_PEDTYPE">
        <walk depart="0.00" departPos="221.00" arrival="8.00" arrivalPos="226.67" duration="8.00" routeLength="5.67" timeLoss="3.06" maxSpeed="1.15"/>
        <ride waitingTime="26.00" vehicle="bus.5" depart="34.00" arrival="111.00" arrivalPos="231.67" duration="77.00" routeLength="886.66" timeLoss="8.81"/>
        <walk depart="111.00" departPos="231.67" arrival="126.00" arrivalPos="250.00" duration="15.00" routeLength="18.33" timeLoss="1.80" maxSpeed="1.39"/>
    </personinfo>
    <personinfo id="p61" depart="0.00" type="DEFAULT_PEDTYPE">
        <walk depart="0.00" departPos="221.00" arrival="5.00" arrivalPos="226.67" duration="5.00" routeLength="5.67" timeLoss="1.23" maxSpeed="1.50"/>
        <ride waitingTime="29.00" vehicle="bus.3" depart="34.00" arrival="111.00" arrivalPos="231.67" duration="77.00" routeLength="886.67" timeLoss="8.81"/>
        <walk depart="111.00" departPos="231.67" arrival="126.00" arrivalPos="250.00" duration="15.00" routeLength="18.33" timeLoss="1.80" maxSpeed="1.39"/>
    </personinfo>
    <personinfo id="p81" depart="0.00" type="DEFAULT_PEDTYPE">
        <walk depart="0.00" departPos="221.00" arrival="5.00" arrivalPos="226.67" duration="5.00" routeLength="5.67" timeLoss="1.05" maxSpeed="1.44"/>
        <ride waitingTime="29.00" vehicle="bus.2" depart="34.00" arrival="111.00" arrivalPos="231.67" duration="77.00" routeLength="886.66" timeLoss="8.81"/>
        <walk depart="111.00" departPos="231.67" arrival="127.00" arrivalPos="250.00" duration="16.00" routeLength="18.33" timeLoss="2.80" maxSpeed="1.39"/>
    </personinfo>
    <personinfo id="p82" depart="0.00" type="DEFAULT_PEDTYPE">
        <walk depart="0.00" departPos="221.00" arrival="6.00" arrivalPos="226.67" duration="6.00" routeLength="5.67" timeLoss="1.91" maxSpeed="1.39"/>
        <ride waitingTime="28.00" vehicle="bus.2" depart="34.00" arrival="111.00" arrivalPos="231.67" duration="77.00" routeLength="886.66" timeLoss="8.81"/>
        <walk depart="111.00" departPos="231.67" arrival="127.00" arrivalPos="250.00" duration="16.00" routeLength="18.33" timeLoss="2.80" maxSpeed="1.39"/>
    </personinfo>
    <personinfo id="p26" depart="0.00" type="DEFAULT_PEDTYPE">
        <walk depart="0.00" departPos="221.00" arrival="9.00" arrivalPos="226.67" duration="9.00" routeLength="5.67" timeLoss="4.32" maxSpeed="1.21"/>
        <ride waitingTime="25.00" vehicle="bus.5" depart="34.00" arrival="111.00" arrivalPos="231.67" duration="77.00" routeLength="886.66" timeLoss="8.81"/>
        <walk depart="111.00" departPos="231.67" arrival="127.00" arrivalPos="250.00" duration="16.00" routeLength="18.33" timeLoss="2.80" maxSpeed="1.39"/>
    </personinfo>
    <personinfo id="p35" depart="0.00" type="DEFAULT_PEDTYPE">
        <walk depart="0.00" departPos="221.00" arrival="6.00" arrivalPos="226.67" duration="6.00" routeLength="5.67" timeLoss="1.90" maxSpeed="1.38"/>
        <ride waitingTime="74.00" vehicle="bus.5" depart="80.00" arrival="111.00" arrivalPos="231.67" duration="31.00" routeLength="443.33" timeLoss="4.41"/>
        <walk depart="111.00" departPos="231.67" arrival="127.00" arrivalPos="250.00" duration="16.00" routeLength="18.33" timeLoss="2.80" maxSpeed="1.39"/>
    </personinfo>
    <personinfo id="p34" depart="0.00" type="DEFAULT_PEDTYPE">
        <walk depart="0.00" departPos="221.00" arrival="7.00" arrivalPos="226.67" duration="7.00" routeLength="5.67" timeLoss="3.52" maxSpeed="1.63"/>
        <ride waitingTime="73.00" vehicle="bus.5" depart="80.00" arrival="112.00" arrivalPos="231.67" duration="32.00" routeLength="443.33" timeLoss="4.41"/>
        <walk depart="112.00" departPos="231.67" arrival="127.00" arrivalPos="250.00" duration="15.00" routeLength="18.33" timeLoss="1.80" maxSpeed="1.39"/>
    </personinfo>
    <personinfo id="p45" depart="0.00" type="DEFAULT_PEDTYPE">
        <walk depart="0.00" departPos="221.00" arrival="9.00" arrivalPos="226.67" duration="9.00" routeLength="5.67" timeLoss="5.09" maxSpeed="1.45"/>
        <ride waitingTime="25.00" vehicle="bus.4" depart="34.00" arrival="112.00" arrivalPos="231.67" duration="78.00" routeLength="886.67" timeLoss="8.81"/>
        <walk depart="112.00" departPos="231.67" arrival="127.00" arrivalPos="250.00" duration="15.00" routeLength="18.33" timeLoss="1.80" maxSpeed="1.39"/>
    </personinfo>
    <personinfo id="p85" depart="0.00" type="DEFAULT_PEDTYPE">
        <walk depart="0.00" departPos="221.00" arrival="8.00" arrivalPos="226.67" duration="8.00" routeLength="5.67" timeLoss="4.44" maxSpeed="1.59"/>
        <ride waitingTime="26.00" vehicle="bus.2" depart="34.00" arrival="112.00" arrivalPos="231.67" duration="78.00" routeLength="886.66" timeLoss="8.81"/>
        <walk depart="112.00" departPos="231.67" arrival="128.00" arrivalPos="250.00" duration="16.00" routeLength="18.33" timeLoss="2.80" maxSpeed="1.39"/>
    </personinfo>
    <personinfo id="p93" depart="0.00" type="DEFAULT_PEDTYPE">
        <walk depart="0.00" departPos="221.00" arrival="9.00" arrivalPos="226.67" duration="9.00" routeLength="5.67" timeLoss="4.10" maxSpeed="1.16"/>
        <ride waitingTime="71.00" vehicle="bus.2" depart="80.00" arrival="112.00" arrivalPos="231.67" duration="32.00" routeLength="443.33" timeLoss="4.41"/>
        <walk depart="112.00" departPos="231.67" arrival="128.00" arrivalPos="250.00" duration="16.00" routeLength="18.33" timeLoss="2.80" maxSpeed="1.39"/>
    </personinfo>
    <personinfo id="p37" depart="0.00" type="DEFAULT_PEDTYPE">
        <walk depart="0.00" departPos="221.00" arrival="8.00" arrivalPos="226.67" duration="8.00" routeLength="5.67" timeLoss="3.81" maxSpeed="1.35"/>
        <ride waitingTime="72.00" vehicle="bus.5" depart="80.00" arrival="112.00" arrivalPos="231.67" duration="32.00" routeLength="443.33" timeLoss="4.41"/>
        <walk depart="112.00" departPos="231.67" arrival="128.00" arrivalPos="250.00" duration="16.00" routeLength="18.33" timeLoss="2.80" maxSpeed="1.39"/>
    </personinfo>
    <personinfo id="p50" depart="0.00" type="DEFAULT_PEDTYPE">
        <walk depart="0.00" departPos="221.00" arrival="10.00" arrivalPos="226.67" duration="10.00" routeLength="5.67" timeLoss="5.20" maxSpeed="1.18"/>
        <ride waitingTime="24.00" vehicle="bus.4" depart="34.00" arrival="112.00" arrivalPos="231.67" duration="78.00" routeLength="886.67" timeLoss="8.81"/>
        <walk depart="112.00" departPos="231.67" arrival="128.00" arrivalPos="250.00" duration="16.00" routeLength="18.33" timeLoss="2.80" maxSpeed="1.39"/>
    </personinfo>
    <personinfo id="p60" depart="0.00" type="DEFAULT_PEDTYPE">
        <walk depart="0.00" departPos="221.00" arrival="10.00" arrivalPos="226.67" duration="10.00" routeLength="5.67" timeLoss="5.79" maxSpeed="1.35"/>
        <ride waitingTime="70.00" vehicle="bus.4" depart="80.00" arrival="113.00" arrivalPos="231.67" duration="33.00" routeLength="443.33" timeLoss="4.41"/>
        <walk depart="113.00" departPos="231.67" arrival="128.00" arrivalPos="250.00" duration="15.00" routeLength="18.33" timeLoss="1.80" maxSpeed="1.39"/>
    </personinfo>
    <personinfo id="p10" depart="0.00" type="DEFAULT_PEDTYPE">
        <walk depart="0.00" departPos="221.00" arrival="6.00" arrivalPos="226.67" duration="6.00" routeLength="5.67" timeLoss="1.24" maxSpeed="1.19"/>
        <ride waitingTime="32.00" vehicle="bus.0" depart="38.00" arrival="142.00" arrivalPos="231.67" duration="104.00" routeLength="1330.00" timeLoss="13.22"/>
        <walk depart="142.00" departPos="231.67" arrival="157.00" arrivalPos="250.00" duration="15.00" routeLength="18.33" timeLoss="1.80" maxSpeed="1.39"/>
    </personinfo>
    <personinfo id="p12" depart="0.00" type="DEFAULT_PEDTYPE">
        <walk depart="0.00" departPos="221.00" arrival="5.00" arrivalPos="226.67" duration="5.00" routeLength="5.67" timeLoss="1.02" maxSpeed="1.43"/>
        <ride waitingTime="73.00" vehicle="bus.0" depart="78.00" arrival="142.00" arrivalPos="231.67" duration="64.00" routeLength="886.67" timeLoss="8.81"/>
        <walk depart="142.00" departPos="231.67" arrival="158.00" arrivalPos="250.00" duration="16.00" routeLength="18.33" timeLoss="2.80" maxSpeed="1.39"/>
    </personinfo>
    <personinfo id="p13" depart="0.00" type="DEFAULT_PEDTYPE">
        <walk depart="0.00" departPos="221.00" arrival="6.00" arrivalPos="226.67" duration="6.00" routeLength="5.67" timeLoss="2.10" maxSpeed="1.45"/>
        <ride waitingTime="72.00" vehicle="bus.0" depart="78.00" arrival="142.00" arrivalPos="231.67" duration="64.00" routeLength="886.67" timeLoss="8.81"/>
        <walk depart="142.00" departPos="231.67" arrival="158.00" arrivalPos="250.00" duration="16.00" routeLength="18.33" timeLoss="2.80" maxSpeed="1.39"/>
    </personinfo>
    <personinfo id="p17" depart="0.00" type="DEFAULT_PEDTYPE">
        <walk depart="0.00" departPos="221.00" arrival="10.00" arrivalPos="226.67" duration="10.00" routeLength="5.67" timeLoss="5.35" maxSpeed="1.22"/>
        <ride waitingTime="68.00" vehicle="bus.0" depart="78.00" arrival="143.00" arrivalPos="231.67" duration="65.00" routeLength="886.67" timeLoss="8.81"/>
        <walk depart="143.00" departPos="231.67" arrival="158.00" arrivalPos="250.00" duration="15.00" routeLength="18.33" timeLoss="1.80" maxSpeed="1.39"/>
    </personinfo>
    <personinfo id="p20" depart="0.00" type="DEFAULT_PEDTYPE">
        <walk depart="0.00" departPos="221.00" arrival="9.00" arrivalPos="226.67" duration="9.00" routeLength="5.67" timeLoss="5.48" maxSpeed="1.61"/>
        <ride waitingTime="69.00" vehicle="bus.0" depart="78.00" arrival="143.00" arrivalPos="231.67" duration="65.00" routeLength="886.67" timeLoss="8.81"/>
        <walk depart="143.00" departPos="231.67" arrival="159.00" arrivalPos="250.00" duration="16.00" routeLength="18.33" timeLoss="2.80" maxSpeed="1.39"/>
    </personinfo>
    <personinfo id="p86" depart="0.00" type="DEFAULT_PEDTYPE">
        <walk depart="0.00" departPos="221.00" arrival="7.00" arrivalPos="226.67" duration="7.00" routeLength="5.67" timeLoss="2.82" maxSpeed="1.36"/>
        <ride waitingTime="27.00" vehicle="bus.2" depart="34.00" arrival="147.00" arrivalPos="231.67" duration="113.00" routeLength="1330.00" timeLoss="13.22"/>
        <walk depart="147.00" departPos="231.67" arrival="162.00" arrivalPos="250.00" duration="15.00" routeLength="18.33" timeLoss="1.80" maxSpeed="1.39"/>
    </personinfo>
    <personinfo id="p94" depart="0.00" type="DEFAULT_PEDTYPE">
        <walk depart="0.00" departPos="221.00" arrival="7.00" arrivalPos="226.67" duration="7.00" routeLength="5.67" timeLoss="2.57" maxSpeed="1.28"/>
        <ride waitingTime="73.00" vehicle="bus.2" depart="80.00" arrival="147.00" arrivalPos="231.67" duration="67.00" routeLength="886.67" timeLoss="8.81"/>
        <walk depart="147.00" departPos="231.67" arrival="163.00" arrivalPos="250.00" duration="16.00" routeLength="18.33" timeLoss="2.80" maxSpeed="1.39"/>
    </personinfo>
    <personinfo id="p97" depart="0.00" type="DEFAULT_PEDTYPE">
        <walk depart="0.00" departPos="221.00" arrival="8.00" arrivalPos="226.67" duration="8.00" routeLength="5.67" timeLoss="3.96" maxSpeed="1.40"/>
        <ride waitingTime="72.00" vehicle="bus.2" depart="80.00" arrival="148.00" arrivalPos="231.67" duration="68.00" routeLength="886.67" timeLoss="8.81"/>
        <walk depart="148.00" departPos="231.67" arrival="164.00" arrivalPos="250.00" duration="16.00" routeLength="18.33" timeLoss="2.80" maxSpeed="1.39"/>
    </personinfo>
    <personinfo id="p108" depart="0.00" type="DEFAULT_PEDTYPE">
        <walk depart="0.00" departPos="221.00" arrival="11.00" arrivalPos="226.67" duration="11.00" routeLength="5.67" timeLoss="7.05" maxSpeed="1.44"/>
        <ride waitingTime="23.00" vehicle="bus.1" depart="34.00" arrival="153.00" arrivalPos="231.67" duration="119.00" routeLength="1330.00" timeLoss="13.22"/>
        <walk depart="153.00" departPos="231.67" arrival="168.00" arrivalPos="250.00" duration="15.00" routeLength="18.33" timeLoss="1.80" maxSpeed="1.39"/>
    </personinfo>
    <personinfo id="p115" depart="0.00" type="DEFAULT_PEDTYPE">
        <walk depart="0.00" departPos="221.00" arrival="8.00" arrivalPos="226.67" duration="8.00" routeLength="5.67" timeLoss="4.28" maxSpeed="1.52"/>
        <ride waitingTime="65.00" vehicle="bus.1" depart="73.00" arrival="153.00" arrivalPos="231.67" duration="80.00" routeLength="886.66" timeLoss="8.81"/>
        <walk depart="153.00" departPos="231.67" arrival="169.00" arrivalPos="250.00" duration="16.00" routeLength="18.33" timeLoss="2.80" maxSpeed="1.39"/>
    </personinfo>
    <personinfo id="p119" depart="0.00" type="DEFAULT_PEDTYPE">
        <walk depart="0.00" departPos="221.00" arrival="10.00" arrivalPos="226.67" duration="10.00" routeLength="5.67" timeLoss="5.88" maxSpeed="1.38"/>
        <ride waitingTime="63.00" vehicle="bus.1" depart="73.00" arrival="154.00" arrivalPos="231.67" duration="81.00" routeLength="886.66" timeLoss="8.81"/>
        <walk depart="154.00" departPos="231.67" arrival="170.00" arrivalPos="250.00" duration="16.00" routeLength="18.33" timeLoss="2.80" maxSpeed="1.39"/>
    </personinfo>
    <personinfo id="p22" depart="0.00" type="DEFAULT_PEDTYPE">
        <walk depart="0.00" departPos="221.00" arrival="6.00" arrivalPos="226.67" duration="6.00" routeLength="5.67" timeLoss="1.96" maxSpeed="1.40"/>
        <ride waitingTime="28.00" vehicle="bus.5" depart="34.00" arrival="158.00" arrivalPos="231.67" duration="124.00" routeLength="1330.00" timeLoss="13.22"/>
        <walk depart="158.00" departPos="231.67" arrival="173.00" arrivalPos="250.00" duration="15.00" routeLength="18.33" timeLoss="1.80" maxSpeed="1.39"/>
    </personinfo>
    <personinfo id="p63" depart="0.00" type="DEFAULT_PEDTYPE">
        <walk depart="0.00" departPos="221.00" arrival="6.00" arrivalPos="226.67" duration="6.00" routeLength="5.67" timeLoss="1.98" maxSpeed="1.41"/>
        <ride waitingTime="28.00" vehicle="bus.3" depart="34.00" arrival="158.00" arrivalPos="231.67" duration="124.00" routeLength="1330.00" timeLoss="13.22"/>
        <walk depart="158.00" departPos="231.67" arrival="173.00" arrivalPos="250.00" duration="15.00" routeLength="18.33" timeLoss="1.80" maxSpeed="1.39"/>
    </personinfo>
    <personinfo id="p32" depart="0.00" type="DEFAULT_PEDTYPE">
        <walk depart="0.00" departPos="221.00" arrival="5.00" arrivalPos="226.67" duration="5.00" routeLength="5.67" timeLoss="1.46" maxSpeed="1.60"/>
        <ride waitingTime="75.00" vehicle="bus.5" depart="80.00" arrival="158.00" arrivalPos="231.67" duration="78.00" routeLength="886.67" timeLoss="8.81"/>
        <walk depart="158.00" departPos="231.67" arrival="174.00" arrivalPos="250.00" duration="16.00" routeLength="18.33" timeLoss="2.80" maxSpeed="1.39"/>
    </personinfo>
    <personinfo id="pStop4.0" depart="33.63" type="DEFAULT_PEDTYPE">
        <walk depart="34.00" departPos="200.00" arrival="55.00" arrivalPos="226.67" duration="21.00" routeLength="26.67" timeLoss="3.03" maxSpeed="1.48"/>
        <ride waitingTime="25.00" vehicle="bus.5" depart="80.00" arrival="159.00" arrivalPos="231.67" duration="79.00" routeLength="886.67" timeLoss="8.81"/>
        <walk depart="159.00" departPos="231.67" arrival="174.00" arrivalPos="250.00" duration="15.00" routeLength="18.33" timeLoss="1.80" maxSpeed="1.39"/>
    </personinfo>
    <personinfo id="p41" depart="0.00" type="DEFAULT_PEDTYPE">
        <walk depart="0.00" departPos="221.00" arrival="5.00" arrivalPos="226.67" duration="5.00" routeLength="5.67" timeLoss="1.04" maxSpeed="1.43"/>
        <ride waitingTime="29.00" vehicle="bus.4" depart="34.00" arrival="159.00" arrivalPos="231.67" duration="125.00" routeLength="1330.00" timeLoss="13.22"/>
        <walk depart="159.00" departPos="231.67" arrival="174.00" arrivalPos="250.00" duration="15.00" routeLength="18.33" timeLoss="1.80" maxSpeed="1.39"/>
    </personinfo>
    <personinfo id="p67" depart="0.00" type="DEFAULT_PEDTYPE">