<?xml version="1.0" encoding="UTF-8"?>

<!-- generated on 2023-04-15 21:56:46 by Eclipse SUMO GUI Version 1.14.1
<configuration xmlns:xsi="http://www.w3.org/2001/XMLSchema-instance" xsi:noNamespaceSchemaLocation="http://sumo.dlr.de/xsd/sumoConfiguration.xsd">

    <input>
        <net-file value="bunched/ring.net.xml"/>
        <additional-files value="bunched/ring.add.xml,bunched/persons.add.xml"/>
    </input>

    <output>
        <tripinfo-output value="tripinfo.xml"/>
    </output>

    <processing>
        <no-internal-links value="false"/>
        <lanechange.overtake-right value="true"/>
    </processing>

    <report>
        <no-warnings value="true"/>
    </report>

    <traci_server>
        <remote-port value="65144"/>
    </traci_server>

</configuration>
-->

<tripinfos xmlns:xsi="http://www.w3.org/2001/XMLSchema-instance" xsi:noNamespaceSchemaLocation="http://sumo.dlr.de/xsd/tripinfo_file.xsd">
    <personinfo id="p15" depart="0.00" type="DEFAULT_PEDTYPE">
        <walk depart="0.00" departPos="221.00" arrival="7.00" arrivalPos="226.67" duration="7.00" routeLength="5.67" timeLoss="2.88" maxSpeed="1.38"/>
        <ride waitingTime="40.00" vehicle="bus.0" depart="47.00" arrival="79.00" arrivalPos="231.67" duration="32.00" routeLength="443.34" timeLoss="5.83"/>
        <walk depart="79.00" departPos="231.67" arrival="94.00" arrivalPos="250.00" duration="15.00" routeLength="18.33" timeLoss="1.80" maxSpeed="1.39"/>
    </personinfo>
    <personinfo id="p1" depart="0.00" type="DEFAULT_PEDTYPE">
        <walk depart="0.00" departPos="221.00" arrival="5.00" arrivalPos="226.67" duration="5.00" routeLength="5.67" timeLoss="1.15" maxSpeed="1.47"/>
        <ride waitingTime="47.00" vehicle="bus.5" depart="52.00" arrival="80.00" arrivalPos="231.67" duration="28.00" routeLength="443.33" timeLoss="5.83"/>
        <walk depart="80.00" departPos="231.67" arrival="95.00" arrivalPos="250.00" duration="15.00" routeLength="18.33" timeLoss="1.80" maxSpeed="1.39"/>
    </personinfo>
    <personinfo id="p14" depart="0.00" type="DEFAULT_PEDTYPE">
        <walk depart="0.00" departPos="221.00" arrival="7.00" arrivalPos="226.67" duration="7.00" routeLength="5.67" timeLoss="3.36" maxSpeed="1.56"/>
        <ride waitingTime="40.00" vehicle="bus.0" depart="47.00" arrival="80.00" arrivalPos="231.67" duration="33.00" routeLength="443.34" timeLoss="5.83"/>
        <walk depart="80.00" departPos="231.67" arrival="95.00" arrivalPos="250.00" duration="15.00" routeLength="18.33" timeLoss="1.80" maxSpeed="1.39"/>
    </personinfo>
    <personinfo id="p9" depart="0.00" type="DEFAULT_PEDTYPE">
        <walk depart="0.00" departPos="221.00" arrival="9.00" arrivalPos="226.67" duration="9.00" routeLength="5.67" timeLoss="4.65" maxSpeed="1.30"/>
        <ride waitingTime="43.00" vehicle="bus.5" depart="52.00" arrival="80.00" arrivalPos="231.67" duration="28.00" routeLength="443.33" timeLoss="5.83"/>
        <walk depart="80.00" departPos="231.67" arrival="96.00" arrivalPos="250.00" duration="16.00" routeLength="18.33" timeLoss="2.80" maxSpeed="1.39"/>
    </personinfo>
    <personinfo id="p8" depart="0.00" type="DEFAULT_PEDTYPE">
        <walk depart="0.00" departPos="221.00" arrival="10.00" arrivalPos="226.67" duration="10.00" routeLength="5.67" timeLoss="5.39" maxSpeed="1.23"/>
        <ride waitingTime="42.00" vehicle="bus.5" depart="52.00" arrival="80.00" arrivalPos="231.67" duration="28.00" routeLength="443.33" timeLoss="5.83"/>
        <walk depart="80.00" departPos="231.67" arrival="96.00" arrivalPos="250.00" duration="16.00" routeLength="18.33" timeLoss="2.80" maxSpeed="1.39"/>
    </personinfo>
    <personinfo id="p16" depart="0.00" type="DEFAULT_PEDTYPE">
        <walk depart="0.00" departPos="221.00" arrival="8.00" arrivalPos="226.67" duration="8.00" routeLength="5.67" timeLoss="3.60" maxSpeed="1.29"/>
        <ride waitingTime="39.00" vehicle="bus.0" depart="47.00" arrival="80.00" arrivalPos="231.67" duration="33.00" routeLength="443.34" timeLoss="5.83"/>
        <walk depart="80.00" departPos="231.67" arrival="96.00" arrivalPos="250.00" duration="16.00" routeLength="18.33" timeLoss="2.80" maxSpeed="1.39"/>
    </personinfo>
    <personinfo id="pStop2.1" depart="21.28" type="DEFAULT_PEDTYPE">
        <walk depart="22.00" departPos="200.00" arrival="43.00" arrivalPos="226.67" duration="21.00" routeLength="26.67" timeLoss="2.23" maxSpeed="1.42"/>
        <ride waitingTime="4.00" vehicle="bus.0" depart="47.00" arrival="81.00" arrivalPos="231.67" duration="34.00" routeLength="443.34" timeLoss="5.83"/>
        <walk depart="81.00" departPos="231.67" arrival="97.00" arrivalPos="250.00" duration="16.00" routeLength="18.33" timeLoss="2.80" maxSpeed="1.39"/>
    </personinfo>
    <personinfo id="p12" depart="0.00" type="DEFAULT_PEDTYPE">
        <walk depart="0.00" departPos="221.00" arrival="5.00" arrivalPos="226.67" duration="5.00" routeLength="5.67" timeLoss="1.02" maxSpeed="1.43"/>
        <ride waitingTime="42.00" vehicle="bus.0" depart="47.00" arrival="115.00" arrivalPos="231.67" duration="68.00" routeLength="886.69" timeLoss="11.67"/>
        <walk depart="115.00" departPos="231.67" arrival="130.00" arrivalPos="250.00" duration="15.00" routeLength="18.33" timeLoss="1.80" maxSpeed="1.39"/>
    </personinfo>
    <personinfo id="pStop2.0" depart="1.58" type="DEFAULT_PEDTYPE">
        <walk depart="2.00" departPos="200.00" arrival="21.00" arrivalPos="226.67" duration="19.00" routeLength="26.67" timeLoss="2.40" maxSpeed="1.61"/>
        <ride waitingTime="26.00" vehicle="bus.0" depart="47.00" arrival="115.00" arrivalPos="231.67" duration="68.00" routeLength="886.67" timeLoss="11.67"/>
        <walk depart="115.00" departPos="231.67" arrival="131.00" arrivalPos="250.00" duration="16.00" routeLength="18.33" timeLoss="2.80" maxSpeed="1.39"/>
    </personinfo>
    <personinfo id="p30" depart="0.00" type="DEFAULT_PEDTYPE">
        <walk depart="0.00" departPos="221.00" arrival="10.00" arrivalPos="226.67" duration="10.00" routeLength="5.67" timeLoss="5.62" maxSpeed="1.29"/>
        <ride waitingTime="72.00" vehicle="bus.0" depart="82.00" arrival="116.00" arrivalPos="231.67" duration="34.00" routeLength="443.33" timeLoss="5.83"/>
        <walk depart="116.00" departPos="231.67" arrival="131.00" arrivalPos="250.00" duration="15.00" routeLength="18.33" timeLoss="1.80" maxSpeed="1.39"/>
    </personinfo>
    <personinfo id="p2" depart="0.00" type="DEFAULT_PEDTYPE">
        <walk depart="0.00" departPos="221.00" arrival="6.00" arrivalPos="226.67" duration="6.00" routeLength="5.67" timeLoss="1.65" maxSpeed="1.30"/>
        <ride waitingTime="46.00" vehicle="bus.5" depart="52.00" arrival="125.00" arrivalPos="231.67" duration="73.00" routeLength="886.67" timeLoss="11.67"/>
        <walk depart="125.00" departPos="231.67" arrival="141.00" arrivalPos="250.00" duration="16.00" routeLength="18.33" timeLoss="2.80" maxSpeed="1.39"/>
    </personinfo>
    <personinfo id="p40" depart="0.00" type="DEFAULT_PEDTYPE">
        <walk depart="0.00" departPos="221.00" arrival="11.00" arrivalPos="226.67" duration="11.00" routeLength="5.67" timeLoss="6.47" maxSpeed="1.25"/>
        <ride waitingTime="106.00" vehicle="bus.0" depart="117.00" arrival="150.00" arrivalPos="231.67" duration="33.00" routeLength="443.33" timeLoss="5.83"/>
        <walk depart="150.00" departPos="231.67" arrival="165.00" arrivalPos="250.00" duration="15.00" routeLength="18.33" timeLoss="1.80" maxSpeed="1.39"/>
    </personinfo>
    <personinfo id="p11" depart="0.00" type="DEFAULT_PEDTYPE">
        <walk depart="0.00" departPos="221.00" arrival="4.00" arrivalPos="226.67" duration="4.00" routeLength="5.67" timeLoss="0.26" maxSpeed="1.51"/>
        <ride waitingTime="43.00" vehicle="bus.0" depart="47.00" arrival="189.00" arrivalPos="231.67" duration="142.00" routeLength="1773.36" timeLoss="25.33"/>
        <walk depart="189.00" departPos="231.67" arrival="204.00" arrivalPos="250.00" duration="15.00" routeLength="18.33" timeLoss="1.80" maxSpeed="1.39"/>
    </personinfo>
    <personinfo id="p18" depart="0.00" type="DEFAULT_PEDTYPE">
        <walk depart="0.00" departPos="221.00" arrival="9.00" arrivalPos="226.67" duration="9.00" routeLength="5.67" timeLoss="4.66" maxSpeed="1.31"/>
        <ride waitingTime="38.00" vehicle="bus.0" depart="47.00" arrival="189.00" arrivalPos="231.67" duration="142.00" routeLength="1773.34" timeLoss="25.33"/>
        <walk depart="189.00" departPos="231.67" arrival="205.00" arrivalPos="250.00" duration="16.00" routeLength="18.33" timeLoss="2.80" maxSpeed="1.39"/>
    </personinfo>
    <personinfo id="p17" depart="0.00" type="DEFAULT_PEDTYPE">
        <walk depart="0.00" departPos="221.00" arrival="10.00" arrivalPos="226.67" duration="10.00" routeLength="5.67" timeLoss="5.35" maxSpeed="1.22"/>
        <ride waitingTime="37.00" vehicle="bus.0" depart="47.00" arrival="190.00" arrivalPos="231.67" duration="143.00" routeLength="1773.34" timeLoss="25.33"/>
        <walk depart="190.00" departPos="231.67" arrival="206.00" arrivalPos="250.00" duration="16.00" routeLength="18.33" timeLoss="2.80" maxSpeed="1.39"/>
    </personinfo>
    <personinfo id="p21" depart="0.00" type="DEFAULT_PEDTYPE">
        <walk depart="0.00" departPos="221.00" arrival="5.00" arrivalPos="226.67" duration="5.00" routeLength="5.67" timeLoss="0.99" maxSpeed="1.41"/>
        <ride waitingTime="77.00" vehicle="bus.0" depart="82.00" arrival="191.00" arrivalPos="231.67" duration="109.00" routeLength="1330.00" timeLoss="19.50"/>
        <walk depart="191.00" departPos="231.67" arrival="206.00" arrivalPos="250.00" duration="15.00" routeLength="18.33" timeLoss="1.80" maxSpeed="1.39"/>
    </personinfo>
    <personinfo id="p29" depart="0.00" type="DEFAULT_PEDTYPE">
        <walk depart="0.00" departPos="221.00" arrival="11.00" arrivalPos="226.67" duration="11.00" routeLength="5.67" timeLoss="7.39" maxSpeed="1.57"/>
        <ride waitingTime="71.00" vehicle="bus.0" depart="82.00" arrival="191.00" arrivalPos="231.67" duration="109.00" routeLength="1330.00" timeLoss="19.50"/>
        <walk depart="191.00" departPos="231.67" arrival="207.00" arrivalPos="250.00" duration="16.00" routeLength="18.33" timeLoss="2.80" maxSpeed="1.39"/>
    </personinfo>
    <personinfo id="p34" depart="0.00" type="DEFAULT_PEDTYPE">
        <walk depart="0.00" departPos="221.00" arrival="7.00" arrivalPos="226.67" duration="7.00" routeLength="5.67" timeLoss="3.52" maxSpeed="1.63"/>
        <ride waitingTime="110.00" vehicle="bus.0" depart="117.00" arrival="192.00" arrivalPos="231.67" duration="75.00" routeLength="886.67" timeLoss="13.67"/>
        <walk depart="192.00" departPos="231.67" arrival="207.00" arrivalPos="250.00" duration="15.00" routeLength="18.33" timeLoss="1.80" maxSpeed="1.39"/>
    </personinfo>
    <personinfo id="p46" depart="0.00" type="DEFAULT_PEDTYPE">
        <walk depart="0.00" departPos="221.00" arrival="8.00" arrivalPos="226.67" duration="8.00" routeLength="5.67" timeLoss="4.25" maxSpeed="1.51"/>
        <ride waitingTime="144.00" vehicle="bus.0" depart="152.00" arrival="192.00" arrivalPos="231.67" duration="40.00" routeLength="443.34" timeLoss="7.83"/>
        <walk depart="192.00" departPos="231.67" arrival="208.00" arrivalPos="250.00" duration="16.00" routeLength="18.33" timeLoss="2.80" maxSpeed="1.39"/>
    </personinfo>
    <personinfo id="p3" depart="0.00" type="DEFAULT_PEDTYPE">
        <walk depart="0.00" departPos="221.00" arrival="7.00" arrivalPos="226.67" duration="7.00" routeLength="5.67" timeLoss="2.96" maxSpeed="1.40"/>
        <ride waitingTime="45.00" vehicle="bus.5" depart="52.00" arrival="221.00" arrivalPos="231.67" duration="169.00" routeLength="1773.33" timeLoss="32.33"/>
        <walk depart="221.00" departPos="231.67" arrival="236.00" arrivalPos="250.00" duration="15.00" routeLength="18.33" timeLoss="1.80" maxSpeed="1.39"/>
    </personinfo>
    <personinfo id="p4" depart="0.00" type="DEFAULT_PEDTYPE">
        <walk depart="0.00" departPos="221.00" arrival="7.00" arrivalPos="226.67" duration="7.00" routeLength="5.67" timeLoss="3.23" maxSpeed="1.50"/>
        <ride waitingTime="45.00" vehicle="bus.5" depart="52.00" arrival="221.00" arrivalPos="231.67" duration="169.00" routeLength="1773.33" timeLoss="32.33"/>
        <walk depart="221.00" departPos="231.67" arrival="237.00" arrivalPos="250.00" duration="16.00" routeLength="18.33" timeLoss="2.80" maxSpeed="1.39"/>
    </personinfo>
    <personinfo id="p13" depart="0.00" type="DEFAULT_PEDTYPE">
        <walk depart="0.00" departPos="221.00" arrival="6.00" arrivalPos="226.67" duration="6.00" routeLength="5.67" timeLoss="2.10" maxSpeed="1.45"/>
        <ride waitingTime="41.00" vehicle="bus.0" depart="47.00" arrival="237.00" arrivalPos="231.67" duration="190.00" routeLength="2216.69" timeLoss="35.17"/>
        <walk depart="237.00" departPos="231.67" arrival="253.00" arrivalPos="250.00" duration="16.00" routeLength="18.33" timeLoss="2.80" maxSpeed="1.39"/>
    </personinfo>
    <personinfo id="p22" depart="0.00" type="DEFAULT_PEDTYPE">
        <walk depart="0.00" departPos="221.00" arrival="6.00" arrivalPos="226.67" duration="6.00" routeLength="5.67" timeLoss="1.96" maxSpeed="1.40"/>
        <ride waitingTime="76.00" vehicle="bus.0" depart="82.00" arrival="237.00" arrivalPos="231.67" duration="155.00" routeLength="1773.33" timeLoss="29.33"/>
        <walk depart="237.00" departPos="231.67" arrival="253.00" arrivalPos="250.00" duration="16.00" routeLength="18.33" timeLoss="2.80" maxSpeed="1.39"/>
    </personinfo>
    <personinfo id="p25" depart="0.00" type="DEFAULT_PEDTYPE">
        <walk depart="0.00" departPos="221.00" arrival="8.00" arrivalPos="226.67" duration="8.00" routeLength="5.67" timeLoss="3.06" maxSpeed="1.15"/>
        <ride waitingTime="74.00" vehicle="bus.0" depart="82.00" arrival="238.00" arrivalPos="231.67" duration="156.00" routeLength="1773.33" timeLoss="29.33"/>
        <walk depart="238.00" departPos="231.67" arrival="254.00" arrivalPos="250.00" duration="16.00" routeLength="18.33" timeLoss="2.80" maxSpeed="1.39"/>
    </personinfo>
    <personinfo id="p35" depart="0.00" type="DEFAULT_PEDTYPE">
        <walk depart="0.00" departPos="221.00" arrival="6.00" arrivalPos="226.67" duration="6.00" routeLength="5.67" timeLoss="1.90" maxSpeed="1.38"/>
        <ride waitingTime="111.00" vehicle="bus.0" depart="117.00" arrival="238.00" arrivalPos="231.67" duration="121.00" routeLength="1330.00" timeLoss="23.50"/>
        <walk depart="238.00" departPos="231.67" arrival="254.00" arrivalPos="250.00" duration="16.00" routeLength="18.33" timeLoss="2.80" maxSpeed="1.39"/>
    </personinfo>
    <personinfo id="p33" depart="0.00" type="DEFAULT_PEDTYPE">
        <walk depart="0.00" departPos="221.00" arrival="6.00" arrivalPos="226.67" duration="6.00" routeLength="5.67" timeLoss="1.94" maxSpeed="1.40"/>
        <ride waitingTime="111.00" vehicle="bus.0" depart="117.00" arrival="239.00" arrivalPos="231.67" duration="122.00" routeLength="1330.00" timeLoss="23.50"/>
        <walk depart="239.00" departPos="231.67" arrival="255.00" arrivalPos="250.00" duration="16.00" routeLength="18.33" timeLoss="2.80" maxSpeed="1.39"/>
    </personinfo>
    <personinfo id="p37" depart="0.00" type="DEFAULT_PEDTYPE">
        <walk depart="0.00" departPos="221.00" arrival="8.00" arrivalPos="226.67" duration="8.00" routeLength="5.67" timeLoss="3.81" maxSpeed="1.35"/>
        <ride waitingTime="109.00" vehicle="bus.0" depart="117.00" arrival="239.00" arrivalPos="231.67" duration="122.00" routeLength="1330.00" timeLoss="23.50"/>
        <walk depart="239.00" departPos="231.67" arrival="256.00" arrivalPos="250.00" duration="17.00" routeLength="18.33" timeLoss="3.80" maxSpeed="1.39"/>
    </personinfo>
    <personinfo id="p38" depart="0.00" type="DEFAULT_PEDTYPE">
        <walk depart="0.00" departPos="221.00" arrival="10.00" arrivalPos="226.67" duration="10.00" routeLength="5.67" timeLoss="6.54" maxSpeed="1.64"/>
        <ride waitingTime="107.00" vehicle="bus.0" depart="117.00" arrival="240.00" arrivalPos="231.67" duration="123.00" routeLength="1330.00" timeLoss="23.50"/>
        <walk depart="240.00" departPos="231.67" arrival="256.00" arrivalPos="250.00" duration="16.00" routeLength="18.33" timeLoss="2.80" maxSpeed="1.39"/>
    </personinfo>
    <personinfo id="p43" depart="0.00" type="DEFAULT_PEDTYPE">
        <walk depart="0.00" departPos="221.00" arrival="6.00" arrivalPos="226.67" duration="6.00" routeLength="5.67" timeLoss="2.26" maxSpeed="1.52"/>
        <ride waitingTime="146.00" vehicle="bus.0" depart="152.00" arrival="241.00" arrivalPos="231.67" duration="89.00" routeLength="886.67" timeLoss="17.67"/>
        <walk depart="241.00" departPos="231.67" arrival="257.00" arrivalPos="250.00" duration="16.00" routeLength="18.33" timeLoss="2.80" maxSpeed="1.39"/>
    </personinfo>
    <personinfo id="p48" depart="0.00" type="DEFAULT_PEDTYPE">
        <walk depart="0.00" departPos="221.00" arrival="10.00" arrivalPos="226.67" duration="10.00" routeLength="5.67" timeLoss="5.47" maxSpeed="1.25"/>
        <ride waitingTime="142.00" vehicle="bus.0" depart="152.00" arrival="241.00" arrivalPos="231.67" duration="89.00" routeLength="886.67" timeLoss="17.67"/>
        <walk depart="241.00" departPos="231.67" arrival="257.00" arrivalPos="250.00" duration="16.00" routeLength="18.33" timeLoss="2.80" maxSpeed="1.39"/>
    </personinfo>
    <personinfo id="p51" depart="0.00" type="DEFAULT_PEDTYPE">
        <walk depart="0.00" departPos="221.00" arrival="6.00" arrivalPos="226.67" duration="6.00" routeLength="5.67" timeLoss="1.23" maxSpeed="1.19"/>
        <ride waitingTime="188.00" vehicle="bus.0" depart="194.00" arrival="242.00" arrivalPos="231.67" duration="48.00" routeLength="443.33" timeLoss="9.83"/>
        <walk depart="242.00" departPos="231.67" arrival="258.00" arrivalPos="250.00" duration="16.00" routeLength="18.33" timeLoss="2.80" maxSpeed="1.39"/>
    </personinfo>
    <personinfo id="p54" depart="0.00" type="DEFAULT_PEDTYPE">
        <walk depart="0.00" departPos="221.00" arrival="6.00" arrivalPos="226.67" duration="6.00" routeLength="5.67" timeLoss="2.28" maxSpeed="1.52"/>
        <ride waitingTime="188.00" vehicle="bus.0" depart="194.00" arrival="242.00" arrivalPos="231.67" duration="48.00" routeLength="443.33" timeLoss="9.83"/>
        <walk depart="242.00" departPos="231.67" arrival="258.00" arrivalPos="250.00" duration="16.00" routeLength="18.33" timeLoss="2.80" maxSpeed="1.39"/>
    </personinfo>
    <personinfo id="p56" depart="0.00" type="DEFAULT_PEDTYPE">
        <walk depart="0.00" departPos="221.00" arrival="9.00" arrivalPos="226.67" duration="9.00" routeLength="5.67" timeLoss="4.90" maxSpeed="1.38"/>
        <ride waitingTime="185.00" vehicle="bus.0" depart="194.00" arrival="243.00" arrivalPos="231.67" duration="49.00" routeLength="443.33" timeLoss="9.83"/>
        <walk depart="243.00" departPos="231.67" arrival="259.00" arrivalPos="250.00" duration="16.00" routeLength="18.33" timeLoss="2.80" maxSpeed="1.39"/>
    </personinfo>
    <personinfo id="p55" depart="0.00" type="DEFAULT_PEDTYPE">
        <walk depart="0.00" departPos="221.00" arrival="9.00" arrivalPos="226.67" duration="9.00" routeLength="5.67" timeLoss="4.93" maxSpeed="1.39"/>
        <ride waitingTime="185.00" vehicle="bus.0" depart="194.00" arrival="244.00" arrivalPos="231.67" duration="50.00" routeLength="443.33" timeLoss="9.83"/>
        <walk depart="244.00" departPos="231.67" arrival="259.00" arrivalPos="250.00" duration="15.00" routeLength="18.33" timeLoss="1.80" maxSpeed="1.39"/>
    </personinfo>
    <personinfo id="pStop6.5" depart="161.07" type="DEFAULT_PEDTYPE">
        <walk depart="162.00" departPos="200.00" arrival="190.00" arrivalPos="226.67" duration="28.00" routeLength="26.67" timeLoss="2.74" maxSpeed="1.06"/>
        <ride waitingTime="4.00" vehicle="bus.0" depart="194.00" arrival="245.00" arrivalPos="231.67" duration="51.00" routeLength="443.33" timeLoss="9.83"/>
        <walk depart="245.00" departPos="231.67" arrival="260.00" arrivalPos="250.00" duration="15.00" routeLength="18.33" timeLoss="1.80" maxSpeed="1.39"/>
    </personinfo>
    <personinfo id="p5" depart="0.00" type="DEFAULT_PEDTYPE">
        <walk depart="0.00" departPos="221.00" arrival="8.00" arrivalPos="226.67" duration="8.00" routeLength="5.67" timeLoss="4.04" maxSpeed="1.43"/>
        <ride waitingTime="44.00" vehicle="bus.5" depart="52.00" arrival="266.00" arrivalPos="231.67" duration="214.00" routeLength="2216.67" timeLoss="38.17"/>
        <walk depart="266.00" departPos="231.67" arrival="281.00" arrivalPos="250.00" duration="15.00" routeLength="18.33" timeLoss="1.80" maxSpeed="1.39"/>
    </personinfo>
    <personinfo id="p7" depart="0.00" type="DEFAULT_PEDTYPE">
        <walk depart="0.00" departPos="221.00" arrival="8.00" arrivalPos="226.67" duration="8.00" routeLength="5.67" timeLoss="4.10" maxSpeed="1.45"/>
        <ride waitingTime="44.00" vehicle="bus.5" depart="52.00" arrival="266.00" arrivalPos="231.67" duration="214.00" routeLength="2216.67" timeLoss="38.17"/>
        <walk depart="266.00" departPos="231.67" arrival="281.00" arrivalPos="250.00" duration="15.00" routeLength="18.33" timeLoss="1.80" maxSpeed="1.39"/>
    </personinfo>
    <personinfo id="pStop4.1" depart="149.41" type="DEFAULT_PEDTYPE">
        <walk depart="150.00" departPos="200.00" arrival="168.00" arrivalPos="226.67" duration="18.00" routeLength="26.67" timeLoss="1.91" maxSpeed="1.66"/>
        <ride waitingTime="16.00" vehicle="bus.5" depart="184.00" arrival="267.00" arrivalPos="231.67" duration="83.00" routeLength="886.67" timeLoss="20.67"/>
        <walk depart="267.00" departPos="231.67" arrival="282.00" arrivalPos="250.00" duration="15.00" routeLength="18.33" timeLoss="1.80" maxSpeed="1.39"/>
    </personinfo>
    <personinfo id="p19" depart="0.00" type="DEFAULT_PEDTYPE">
        <walk depart="0.00" departPos="221.00" arrival="11.00" arrivalPos="226.67" duration="11.00" routeLength="5.67" timeLoss="6.64" maxSpeed="1.30"/>
        <ride waitingTime="36.00" vehicle="bus.0" depart="47.00" arrival="290.00" arrivalPos="231.67" duration="243.00" routeLength="2660.00" timeLoss="41.00"/>
        <walk depart="290.00" departPos="231.67" arrival="305.00" arrivalPos="250.00" duration="15.00" routeLength="18.33" timeLoss="1.80" maxSpeed="1.39"/>
    </personinfo>
    <personinfo id="p20" depart="0.00" type="DEFAULT_PEDTYPE">
        <walk depart="0.00" departPos="221.00" arrival="9.00" arrivalPos="226.67" duration="9.00" routeLength="5.67" timeLoss="5.48" maxSpeed="1.61"/>
        <ride waitingTime="38.00" vehicle="bus.0" depart="47.00" arrival="290.00" arrivalPos="231.67" duration="243.00" routeLength="2660.00" timeLoss="41.00"/>
        <walk depart="290.00" departPos="231.67" arrival="306.00" arrivalPos="250.00" duration="16.00" routeLength="18.33" timeLoss="2.80" maxSpeed="1.39"/>
    </personinfo>
    <personinfo id="p23" depart="0.00" type="DEFAULT_PEDTYPE">
        <walk depart="0.00" departPos="221.00" arrival="7.00" arrivalPos="226.67" duration="7.00" routeLength="5.67" timeLoss="2.81" maxSpeed="1.35"/>
        <ride waitingTime="75.00" vehicle="bus.0" depart="82.00" arrival="291.00" arrivalPos="231.67" duration="209.00" routeLength="2216.66" timeLoss="35.17"/>
        <walk depart="291.00" departPos="231.67" arrival="306.00" arrivalPos="250.00" duration="15.00" routeLength="18.33" timeLoss="1.80" maxSpeed="1.39"/>
    </personinfo>
    <personinfo id="p26" depart="0.00" type="DEFAULT_PEDTYPE">
        <walk depart="0.00" departPos="221.00" arrival="9.00" arrivalPos="226.67" duration="9.00" routeLength="5.67" timeLoss="4.32" maxSpeed="1.21"/>
        <ride waitingTime="73.00" vehicle="bus.0" depart="82.00" arrival="291.00" arrivalPos="231.67" duration="209.00" routeLength="2216.66" timeLoss="35.17"/>
        <walk depart="291.00" departPos="231.67" arrival="307.00" arrivalPos="250.00" duration="16.00" routeLength="18.33" timeLoss="2.80" maxSpeed="1.39"/>
    </personinfo>
    <personinfo id="p27" depart="0.00" type="DEFAULT_PEDTYPE">
        <walk depart="0.00" departPos="221.00" arrival="9.00" arrivalPos="226.67" duration="9.00" routeLength="5.67" timeLoss="4.55" maxSpeed="1.27"/>
        <ride waitingTime="73.00" vehicle="bus.0" depart="82.00" arrival="292.00" arrivalPos="231.67" duration="210.00" routeLength="2216.66" timeLoss="35.17"/>
        <walk depart="292.00" departPos="231.67" arrival="308.00" arrivalPos="250.00" duration="16.00" routeLength="18.33" timeLoss="2.80" maxSpeed="1.39"/>
    </personinfo>
    <personinfo id="p28" depart="0.00" type="DEFAULT_PEDTYPE">
        <walk depart="0.00" departPos="221.00" arrival="9.00" arrivalPos="226.67" duration="9.00" routeLength="5.67" timeLoss="4.70" maxSpeed="1.32"/>
        <ride waitingTime="73.00" vehicle="bus.0" depart="82.00" arrival="292.00" arrivalPos="231.67" duration="210.00" routeLength="2216.66" timeLoss="35.17"/>
        <walk depart="292.00" departPos="231.67" arrival="308.00" arrivalPos="250.00" duration="16.00" routeLength="18.33" timeLoss="2.80" maxSpeed="1.39"/>
    </personinfo>
    <personinfo id="p39" depart="0.00" type="DEFAULT_PEDTYPE">
        <walk depart="0.00" departPos="221.00" arrival="9.00" arrivalPos="226.67" duration="9.00" routeLength="5.67" timeLoss="5.30" maxSpeed="1.53"/>
        <ride waitingTime="108.00" vehicle="bus.0" depart="117.00" arrival="293.00" arrivalPos="231.67" duration="176.00" routeLength="1773.33" timeLoss="29.33"/>
        <walk depart="293.00" departPos="231.67" arrival="309.00" arrivalPos="250.00" duration="16.00" routeLength="18.33" timeLoss="2.80" maxSpeed="1.39"/>
    </personinfo>
    <personinfo id="p42" depart="0.00" type="DEFAULT_PEDTYPE">
        <walk depart="0.00" departPos="221.00" arrival="6.00" arrivalPos="226.67" duration="6.00" routeLength="5.67" timeLoss="1.74" maxSpeed="1.33"/>
        <ride waitingTime="146.00" vehicle="bus.0" depart="152.00" arrival="293.00" arrivalPos="231.67" duration="141.00" routeLength="1330.00" timeLoss="23.50"/>
        <walk depart="293.00" departPos="231.67" arrival="309.00" arrivalPos="250.00" duration="16.00" routeLength="18.33" timeLoss="2.80" maxSpeed="1.39"/>
    </personinfo>
    <personinfo id="p60" depart="0.00" type="DEFAULT_PEDTYPE">
        <walk depart="0.00" departPos="221.00" arrival="10.00" arrivalPos="226.67" duration="10.00" routeLength="5.67" timeLoss="5.79" maxSpeed="1.35"/>
        <ride waitingTime="184.00" vehicle="bus.0" depart="194.00" arrival="294.00" arrivalPos="231.67" duration="100.00" routeLength="886.66" timeLoss="15.67"/>
        <walk depart="294.00" departPos="231.67" arrival="310.00" arrivalPos="250.00" duration="16.00" routeLength="18.33" timeLoss="2.80" maxSpeed="1.39"/>
    </personinfo>
    <personinfo id="pStop6.0" depart="26.05" type="DEFAULT_PEDTYPE">
        <walk depart="27.00" departPos="200.00" arrival="50.00" arrivalPos="226.67" duration="23.00" routeLength="26.67" timeLoss="3.13" maxSpeed="1.34"/>
        <ride waitingTime="144.00" vehicle="bus.0" depart="194.00" arrival="295.00" arrivalPos="231.67" duration="101.00" routeLength="886.66" timeLoss="15.67"/>
        <walk depart="295.00" departPos="231.67" arrival="310.00" arrivalPos="250.00" duration="15.00" routeLength="18.33" timeLoss="1.80" maxSpeed="1.39"/>
    </personinfo>
    <personinfo id="pStop5.1" depart="119.31" type="DEFAULT_PEDTYPE">
        <walk depart="120.00" departPos="200.00" arrival="139.00" arrivalPos="226.67" duration="19.00" routeLength="26.67" timeLoss="2.17" maxSpeed="1.58"/>
        <ride waitingTime="13.00" vehicle="bus.0" depart="152.00" arrival="294.00" arrivalPos="231.67" duration="142.00" routeLength="1330.00" timeLoss="23.50"/>
        <walk depart="294.00" departPos="231.67" arrival="310.00" arrivalPos="250.00" duration="16.00" routeLength="18.33" timeLoss="2.80" maxSpeed="1.39"/>
    </personinfo>
    <personinfo id="pStop6.3" depart="126.56" type="DEFAULT_PEDTYPE">
        <walk depart="127.00" departPos="200.00" arrival="153.00" arrivalPos="226.67" duration="26.00" routeLength="26.67" timeLoss="2.80" maxSpeed="1.15"/>
        <ride waitingTime="41.00" vehicle="bus.0" depart="194.00" arrival="295.00" arrivalPos="231.67" duration="101.00" routeLength="886.66" timeLoss="15.67"/>
        <walk depart="295.00" departPos="231.67" arrival="311.00" arrivalPos="250.00" duration="16.00" routeLength="18.33" timeLoss="2.80" maxSpeed="1.39"/>
    </personinfo>
    <personinfo id="p62" depart="0.00" type="DEFAULT_PEDTYPE">
        <walk depart="0.00" departPos="221.00" arrival="7.00" arrivalPos="226.67" duration="7.00" routeLength="5.67" timeLoss="3.35" maxSpeed="1.55"/>
        <ride waitingTime="244.00" vehicle="bus.0" depart="251.00" arrival="296.00" arrivalPos="231.67" duration="45.00" routeLength="443.33" timeLoss="5.83"/>
        <walk depart="296.00" departPos="231.67" arrival="311.00" arrivalPos="250.00" duration="15.00" routeLength="18.33" timeLoss="1.80" maxSpeed="1.39"/>
    </personinfo>
    <personinfo id="p65" depart="0.00" type="DEFAULT_PEDTYPE">
        <walk depart="0.00" departPos="221.00" arrival="6.00" arrivalPos="226.67" duration="6.00" routeLength="5.67" timeLoss="1.65" maxSpeed="1.30"/>
        <ride waitingTime="245.00" vehicle="bus.0" depart="251.00" arrival="296.00" arrivalPos="231.67" duration="45.00" routeLength="443.33" timeLoss="5.83"/>
        <walk depart="296.00" departPos="231.67" arrival="312.00" arrivalPos="250.00" duration="16.00" routeLength="18.33" timeLoss="2.80" maxSpeed="1.39"/>
    </personinfo>
    <personinfo id="pStop7.3" depart="84.39" type="DEFAULT_PEDTYPE">
        <walk depart="85.00" departPos="200.00" arrival="107.00" arrivalPos="226.67" duration="22.00" routeLength="26.67" timeLoss="2.44" maxSpeed="1.36"/>
        <ride waitingTime="144.00" vehicle="bus.0" depart="251.00" arrival="297.00" arrivalPos="231.67" duration="46.00" routeLength="443.33" timeLoss="5.83"/>