<?xml version="1.0" encoding="UTF-8"?>

<!-- generated on 2022-11-15 22:15:17 by Eclipse SUMO GUI Version 1.14.1
<configuration xmlns:xsi="http://www.w3.org/2001/XMLSchema-instance" xsi:noNamespaceSchemaLocation="http://sumo.dlr.de/xsd/sumoConfiguration.xsd">

    <input>
        <net-file value="demo.net.xml"/>
        <additional-files value="demo.add.xml"/>
    </input>

    <output>
        <tripinfo-output value="tripinfo.xml"/>
    </output>

    <processing>
        <no-internal-links value="false"/>
    </processing>

    <traci_server>
        <remote-port value="57315"/>
    </traci_server>

</configuration>
-->

<tripinfos xmlns:xsi="http://www.w3.org/2001/XMLSchema-instance" xsi:noNamespaceSchemaLocation="http://sumo.dlr.de/xsd/tripinfo_file.xsd">
    <personinfo id="persons.0" depart="0.00" type="DEFAULT_PEDTYPE">
        <walk depart="0.00" departPos="0.00" arrival="14.00" arrivalPos="17.50" duration="14.00" routeLength="17.50" timeLoss="2.11" maxSpeed="1.47"/>
        <ride waitingTime="6.00" vehicle="bus.0" depart="20.00" arrival="31.00" arrivalPos="20.00" duration="11.00" routeLength="107.07" timeLoss="3.29"/>
        <walk depart="31.00" departPos="20.00" arrival="39.00" arrivalPos="30.00" duration="8.00" routeLength="10.00" timeLoss="0.80" maxSpeed="1.39"/>
    </personinfo>
    <personinfo id="persons.4" depart="20.00" type="DEFAULT_PEDTYPE">
        <walk depart="20.00" departPos="0.00" arrival="34.00" arrivalPos="17.50" duration="14.00" routeLength="17.50" timeLoss="1.77" maxSpeed="1.43"/>
        <ride waitingTime="34.00" vehicle="bus.0" depart="68.00" arrival="79.00" arrivalPos="20.00" duration="11.00" routeLength="107.07" timeLoss="3.29"/>
        <walk depart="79.00" departPos="20.00" arrival="88.00" arrivalPos="30.00" duration="9.00" routeLength="10.00" timeLoss="1.80" maxSpeed="1.39"/>
    </personinfo>
    <personinfo id="persons.5" depart="25.00" type="DEFAULT_PEDTYPE">
        <walk depart="25.00" departPos="0.00" arrival="42.00" arrivalPos="17.50" duration="17.00" routeLength="17.50" timeLoss="1.84" maxSpeed="1.15"/>
        <ride waitingTime="26.00" vehicle="bus.0" depart="68.00" arrival="79.00" arrivalPos="20.00" duration="11.00" routeLength="107.07" timeLoss="3.29"/>
        <walk depart="79.00" departPos="20.00" arrival="88.00" arrivalPos="30.00" duration="9.00" routeLength="10.00" timeLoss="1.80" maxSpeed="1.39"/>
    </personinfo>
    <personinfo id="persons.8" depart="40.00" type="DEFAULT_PEDTYPE">
        <walk depart="40.00" departPos="0.00" arrival="55.00" arrivalPos="17.50" duration="15.00" routeLength="17.50" timeLoss="1.57" maxSpeed="1.30"/>
        <ride waitingTime="13.00" vehicle="bus.0" depart="68.00" arrival="79.00" arrivalPos="20.00" duration="11.00" routeLength="107.07" timeLoss="3.29"/>
        <walk depart="79.00" departPos="20.00" arrival="88.00" arrivalPos="30.00" duration="9.00" routeLength="10.00" timeLoss="1.80" maxSpeed="1.39"/>
    </personinfo>
    <personinfo id="persons.10" depart="50.00" type="DEFAULT_PEDTYPE">
        <walk depart="50.00" departPos="0.00" arrival="63.00" arrivalPos="17.50" duration="13.00" routeLength="17.50" timeLoss="1.45" maxSpeed="1.51"/>
        <ride waitingTime="5.00" vehicle="bus.0" depart="68.00" arrival="80.00" arrivalPos="20.00" duration="12.00" routeLength="107.07" timeLoss="3.29"/>
        <walk depart="80.00" departPos="20.00" arrival="89.00" arrivalPos="30.00" duration="9.00" routeLength="10.00" timeLoss="1.80" maxSpeed="1.39"/>
    </personinfo>
    <personinfo id="persons.11" depart="55.00" type="DEFAULT_PEDTYPE">
        <walk depart="55.00" departPos="0.00" arrival="69.00" arrivalPos="17.50" duration="14.00" routeLength="17.50" timeLoss="1.72" maxSpeed="1.43"/>
        <ride waitingTime="5.00" vehicle="bus.1" depart="74.00" arrival="87.00" arrivalPos="20.00" duration="13.00" routeLength="107.07" timeLoss="5.29"/>
        <walk depart="87.00" departPos="20.00" arrival="95.00" arrivalPos="30.00" duration="8.00" routeLength="10.00" timeLoss="0.80" maxSpeed="1.39"/>
    </personinfo>
    <personinfo id="persons.3" depart="15.00" type="DEFAULT_PEDTYPE">
        <walk depart="15.00" departPos="0.00" arrival="28.00" arrivalPos="17.50" duration="13.00" routeLength="17.50" timeLoss="1.36" maxSpeed="1.50"/>
        <ride waitingTime="40.00" vehicle="bus.0" depart="68.00" arrival="89.00" arrivalPos="20.00" duration="21.00" routeLength="148.44" timeLoss="7.31"/>
        <walk depart="89.00" departPos="20.00" arrival="97.00" arrivalPos="30.00" duration="8.00" routeLength="10.00" timeLoss="0.80" maxSpeed="1.39"/>
    </personinfo>
    <personinfo id="persons.6" depart="30.00" type="DEFAULT_PEDTYPE">
        <walk depart="30.00" departPos="0.00" arrival="44.00" arrivalPos="17.50" duration="14.00" routeLength="17.50" timeLoss="1.95" maxSpeed="1.45"/>
        <ride waitingTime="24.00" vehicle="bus.0" depart="68.00" arrival="89.00" arrivalPos="20.00" duration="21.00" routeLength="148.44" timeLoss="7.31"/>
        <walk depart="89.00" departPos="20.00" arrival="98.00" arrivalPos="30.00" duration="9.00" routeLength="10.00" timeLoss="1.80" maxSpeed="1.39"/>
    </personinfo>
    <personinfo id="persons.7" depart="35.00" type="DEFAULT_PEDTYPE">
        <walk depart="35.00" departPos="0.00" arrival="51.00" arrivalPos="17.50" duration="16.00" routeLength="17.50" timeLoss="1.78" maxSpeed="1.23"/>
        <ride waitingTime="17.00" vehicle="bus.0" depart="68.00" arrival="89.00" arrivalPos="20.00" duration="21.00" routeLength="148.44" timeLoss="7.31"/>
        <walk depart="89.00" departPos="20.00" arrival="98.00" arrivalPos="30.00" duration="9.00" routeLength="10.00" timeLoss="1.80" maxSpeed="1.39"/>
    </personinfo>
    <personinfo id="persons.9" depart="45.00" type="DEFAULT_PEDTYPE">
        <walk depart="45.00" departPos="0.00" arrival="62.00" arrivalPos="17.50" duration="17.00" routeLength="17.50" timeLoss="2.30" maxSpeed="1.19"/>
        <ride waitingTime="6.00" vehicle="bus.0" depart="68.00" arrival="90.00" arrivalPos="20.00" duration="22.00" routeLength="148.44" timeLoss="7.31"/>
        <walk depart="90.00" departPos="20.00" arrival="99.00" arrivalPos="30.00" duration="9.00" routeLength="10.00" timeLoss="1.80" maxSpeed="1.39"/>
    </personinfo>
    <personinfo id="persons.1" depart="5.00" type="DEFAULT_PEDTYPE">
        <walk depart="5.00" departPos="0.00" arrival="20.00" arrivalPos="17.50" duration="15.00" routeLength="17.50" timeLoss="1.57" maxSpeed="1.30"/>
        <ride waitingTime="6.00" vehicle="bus.1" depart="26.00" arrival="97.00" arrivalPos="20.00" duration="71.00" routeLength="378.14" timeLoss="41.78"/>
        <walk depart="97.00" departPos="20.00" arrival="106.00" arrivalPos="30.00" duration="9.00" routeLength="10.00" timeLoss="1.80" maxSpeed="1.39"/>
    </personinfo>
    <personinfo id="persons.2" depart="10.00" type="DEFAULT_PEDTYPE">
        <walk depart="10.00" departPos="0.00" arrival="24.00" arrivalPos="17.50" duration="14.00" routeLength="17.50" timeLoss="1.53" maxSpeed="1.40"/>
        <ride waitingTime="2.00" vehicle="bus.1" depart="26.00" arrival="97.00" arrivalPos="20.00" duration="71.00" routeLength="378.14" timeLoss="41.78"/>
        <walk depart="97.00" departPos="20.00" arrival="106.00" arrivalPos="30.00" duration="9.00" routeLength="10.00" timeLoss="1.80" maxSpeed="1.39"/>
    </personinfo>
    <personinfo id="persons.13" depart="65.00" type="DEFAULT_PEDTYPE">
        <walk depart="65.00" departPos="0.00" arrival="77.00" arrivalPos="17.50" duration="12.00" routeLength="17.50" timeLoss="0.78" maxSpeed="1.56"/>
        <ride waitingTime="28.00" vehicle="bus.0" depart="105.00" arrival="116.00" arrivalPos="20.00" duration="11.00" routeLength="107.07" timeLoss="3.29"/>
        <walk depart="116.00" departPos="20.00" arrival="125.00" arrivalPos="30.00" duration="9.00" routeLength="10.00" timeLoss="1.80" maxSpeed="1.39"/>
    </personinfo>
    <personinfo id="persons.15" depart="75.00" type="DEFAULT_PEDTYPE">
        <walk depart="75.00" departPos="0.00" arrival="90.00" arrivalPos="17.50" duration="15.00" routeLength="17.50" timeLoss="1.41" maxSpeed="1.29"/>
        <ride waitingTime="15.00" vehicle="bus.0" depart="105.00" arrival="116.00" arrivalPos="20.00" duration="11.00" routeLength="107.07" timeLoss="3.29"/>
        <walk depart="116.00" departPos="20.00" arrival="125.00" arrivalPos="30.00" duration="9.00" routeLength="10.00" timeLoss="1.80" maxSpeed="1.39"/>
    </personinfo>
    <personinfo id="persons.16" depart="80.00" type="DEFAULT_PEDTYPE">
        <walk depart="80.00" departPos="0.00" arrival="96.00" arrivalPos="17.50" duration="16.00" routeLength="17.50" timeLoss="1.66" maxSpeed="1.22"/>
        <ride waitingTime="9.00" vehicle="bus.0" depart="105.00" arrival="116.00" arrivalPos="20.00" duration="11.00" routeLength="107.07" timeLoss="3.29"/>
        <walk depart="116.00" departPos="20.00" arrival="125.00" arrivalPos="30.00" duration="9.00" routeLength="10.00" timeLoss="1.80" maxSpeed="1.39"/>
    </personinfo>
    <personinfo id="persons.17" depart="85.00" type="DEFAULT_PEDTYPE">
        <walk depart="85.00" departPos="0.00" arrival="100.00" arrivalPos="17.50" duration="15.00" routeLength="17.50" timeLoss="1.62" maxSpeed="1.31"/>
        <ride waitingTime="5.00" vehicle="bus.0" depart="105.00" arrival="117.00" arrivalPos="20.00" duration="12.00" routeLength="107.07" timeLoss="3.29"/>
        <walk depart="117.00" departPos="20.00" arrival="126.00" arrivalPos="30.00" duration="9.00" routeLength="10.00" timeLoss="1.80" maxSpeed="1.39"/>
    </personinfo>
    <personinfo id="persons.12" depart="60.00" type="DEFAULT_PEDTYPE">
        <walk depart="60.00" departPos="0.00" arrival="74.00" arrivalPos="17.50" duration="14.00" routeLength="17.50" timeLoss="1.97" maxSpeed="1.45"/>
        <ride waitingTime="31.00" vehicle="bus.0" depart="105.00" arrival="126.00" arrivalPos="20.00" duration="21.00" routeLength="148.44" timeLoss="7.31"/>
        <walk depart="126.00" departPos="20.00" arrival="134.00" arrivalPos="30.00" duration="8.00" routeLength="10.00" timeLoss="0.80" maxSpeed="1.39"/>
    </personinfo>
    <personinfo id="persons.14" depart="70.00" type="DEFAULT_PEDTYPE">
        <walk depart="70.00" departPos="0.00" arrival="84.00" arrivalPos="17.50" duration="14.00" routeLength="17.50" timeLoss="1.29" maxSpeed="1.38"/>
        <ride waitingTime="21.00" vehicle="bus.0" depart="105.00" arrival="126.00" arrivalPos="20.00" duration="21.00" routeLength="148.44" timeLoss="7.31"/>
        <walk depart="126.00" departPos="20.00" arrival="135.00" arrivalPos="30.00" duration="9.00" routeLength="10.00" timeLoss="1.80" maxSpeed="1.39"/>
    </personinfo>
    <personinfo id="persons.21" depart="105.00" type="DEFAULT_PEDTYPE">
        <walk depart="105.00" departPos="0.00" arrival="119.00" arrivalPos="17.50" duration="14.00" routeLength="17.50" timeLoss="1.53" maxSpeed="1.40"/>
        <ride waitingTime="7.00" vehicle="bus.1" depart="126.00" arrival="148.00" arrivalPos="20.00" duration="22.00" routeLength="148.44" timeLoss="11.31"/>
        <walk depart="148.00" departPos="20.00" arrival="157.00" arrivalPos="30.00" duration="9.00" routeLength="10.00" timeLoss="1.80" maxSpeed="1.39"/>
    </personinfo>
    <personinfo id="persons.22" depart="110.00" type="DEFAULT_PEDTYPE">
        <walk depart="110.00" departPos="0.00" arrival="125.00" arrivalPos="17.50" duration="15.00" routeLength="17.50" timeLoss="2.08" maxSpeed="1.35"/>
        <ride waitingTime="1.00" vehicle="bus.1" depart="126.00" arrival="148.00" arrivalPos="20.00" duration="22.00" routeLength="148.44" timeLoss="11.31"/>
        <walk depart="148.00" departPos="20.00" arrival="157.00" arrivalPos="30.00" duration="9.00" routeLength="10.00" timeLoss="1.80" maxSpeed="1.39"/>
    </personinfo>
    <personinfo id="persons.24" depart="120.00" type="DEFAULT_PEDTYPE">
        <walk depart="120.00" departPos="0.00" arrival="137.00" arrivalPos="17.50" duration="17.00" routeLength="17.50" timeLoss="1.74" maxSpeed="1.15"/>
        <ride waitingTime="33.00" vehicle="bus.0" depart="170.00" arrival="181.00" arrivalPos="20.00" duration="11.00" routeLength="107.07" timeLoss="3.29"/>
        <walk depart="181.00" departPos="20.00" arrival="189.00" arrivalPos="30.00" duration="8.00" routeLength="10.00" timeLoss="0.80" maxSpeed="1.39"/>
    </personinfo>
    <personinfo id="persons.26" depart="130.00" type="DEFAULT_PEDTYPE">
        <walk depart="130.00" departPos="0.00" arrival="145.00" arrivalPos="17.50" duration="15.00" routeLength="17.50" timeLoss="1.26" maxSpeed="1.27"/>
        <ride waitingTime="25.00" vehicle="bus.0" depart="170.00" arrival="181.00" arrivalPos="20.00" duration="11.00" routeLength="107.07" timeLoss="3.29"/>
        <walk depart="181.00" departPos="20.00" arrival="190.00" arrivalPos="30.00" duration="9.00" routeLength="10.00" timeLoss="1.80" maxSpeed="1.39"/>
    </personinfo>
    <personinfo id="persons.23" depart="115.00" type="DEFAULT_PEDTYPE">
        <walk depart="115.00" departPos="0.00" arrival="131.00" arrivalPos="17.50" duration="16.00" routeLength="17.50" timeLoss="1.84" maxSpeed="1.24"/>
        <ride waitingTime="39.00" vehicle="bus.0" depart="170.00" arrival="190.00" arrivalPos="20.00" duration="20.00" routeLength="148.44" timeLoss="7.31"/>
        <walk depart="190.00" departPos="20.00" arrival="199.00" arrivalPos="30.00" duration="9.00" routeLength="10.00" timeLoss="1.80" maxSpeed="1.39"/>
    </personinfo>
    <personinfo id="persons.25" depart="125.00" type="DEFAULT_PEDTYPE">
        <walk depart="125.00" departPos="0.00" arrival="141.00" arrivalPos="17.50" duration="16.00" routeLength="17.50" timeLoss="1.56" maxSpeed="1.21"/>
        <ride waitingTime="29.00" vehicle="bus.0" depart="170.00" arrival="190.00" arrivalPos="20.00" duration="20.00" routeLength="148.44" timeLoss="7.31"/>
        <walk depart="190.00" departPos="20.00" arrival="199.00" arrivalPos="30.00" duration="9.00" routeLength="10.00" timeLoss="1.80" maxSpeed="1.39"/>
    </personinfo>
    <personinfo id="persons.27" depart="135.00" type="DEFAULT_PEDTYPE">
        <walk depart="135.00" departPos="0.00" arrival="150.00" arrivalPos="17.50" duration="15.00" routeLength="17.50" timeLoss="1.72" maxSpeed="1.32"/>
        <ride waitingTime="20.00" vehicle="bus.0" depart="170.00" arrival="190.00" arrivalPos="20.00" duration="20.00" routeLength="148.44" timeLoss="7.31"/>
        <walk depart="190.00" departPos="20.00" arrival="199.00" arrivalPos="30.00" duration="9.00" routeLength="10.00" timeLoss="1.80" maxSpeed="1.39"/>
    </personinfo>
    <personinfo id="persons.28" depart="140.00" type="DEFAULT_PEDTYPE">
        <walk depart="140.00" departPos="0.00" arrival="153.00" arrivalPos="17.50" duration="13.00" routeLength="17.50" timeLoss="1.87" maxSpeed="1.57"/>
        <ride waitingTime="17.00" vehicle="bus.0" depart="170.00" arrival="191.00" arrivalPos="20.00" duration="21.00" routeLength="148.44" timeLoss="7.31"/>
        <walk depart="191.00" departPos="20.00" arrival="200.00" arrivalPos="30.00" duration="9.00" routeLength="10.00" timeLoss="1.80" maxSpeed="1.39"/>
    </personinfo>
    <personinfo id="persons.29" depart="145.00" type="DEFAULT_PEDTYPE">
        <walk depart="145.00" departPos="0.00" arrival="160.00" arrivalPos="17.50" duration="15.00" routeLength="17.50" timeLoss="1.47" maxSpeed="1.29"/>
        <ride waitingTime="10.00" vehicle="bus.0" depart="170.00" arrival="191.00" arrivalPos="20.00" duration="21.00" routeLength="148.44" timeLoss="7.31"/>
        <walk depart="191.00" departPos="20.00" arrival="200.00" arrivalPos="30.00" duration="9.00" routeLength="10.00" timeLoss="1.80" maxSpeed="1.39"/>
    </personinfo>
    <personinfo id="persons.30" depart="150.00" type="DEFAULT_PEDTYPE">
        <walk depart="150.00" departPos="0.00" arrival="162.00" arrivalPos="17.50" duration="12.00" routeLength="17.50" timeLoss="1.31" maxSpeed="1.64"/>
        <ride waitingTime="8.00" vehicle="bus.0" depart="170.00" arrival="192.00" arrivalPos="20.00" duration="22.00" routeLength="148.44" timeLoss="7.31"/>
        <walk depart="192.00" departPos="20.00" arrival="201.00" arrivalPos="30.00" duration="9.00" routeLength="10.00" timeLoss="1.80" maxSpeed="1.39"/>
    </personinfo>
    <personinfo id="persons.31" depart="155.00" type="DEFAULT_PEDTYPE">
        <walk depart="155.00" departPos="0.00" arrival="168.00" arrivalPos="17.50" duration="13.00" routeLength="17.50" timeLoss="2.09" maxSpeed="1.60"/>
        <ride waitingTime="2.00" vehicle="bus.0" depart="170.00" arrival="192.00" arrivalPos="20.00" duration="22.00" routeLength="148.44" timeLoss="7.31"/>
        <walk depart="192.00" departPos="20.00" arrival="201.00" arrivalPos="30.00" duration="9.00" routeLength="10.00" timeLoss="1.80" maxSpeed="1.39"/>
    </personinfo>
    <personinfo id="persons.32" depart="160.00" type="DEFAULT_PEDTYPE">
        <walk depart="160.00" departPos="0.00" arrival="175.00" arrivalPos="17.50" duration="15.00" routeLength="17.50" timeLoss="2.47" maxSpeed="1.40"/>
        <ride waitingTime="15.00" vehicle="bus.1" depart="190.00" arrival="205.00" arrivalPos="20.00" duration="15.00" routeLength="148.44" timeLoss="4.31"/>
        <walk depart="205.00" departPos="20.00" arrival="213.00" arrivalPos="30.00" duration="8.00" routeLength="10.00" timeLoss="0.80" maxSpeed="1.39"/>
    </personinfo>
    <personinfo id="persons.18" depart="90.00" type="DEFAULT_PEDTYPE">
        <walk depart="90.00" departPos="0.00" arrival="105.00" arrivalPos="17.50" duration="15.00" routeLength="17.50" timeLoss="1.54" maxSpeed="1.30"/>
        <ride waitingTime="21.00" vehicle="bus.1" depart="126.00" arrival="243.00" arrivalPos="20.00" duration="117.00" routeLength="566.47" timeLoss="42.22"/>
        <walk depart="243.00" departPos="20.00" arrival="251.00" arrivalPos="30.00" duration="8.00" routeLength="10.00" timeLoss="0.80" maxSpeed="1.39"/>
    </personinfo>
    <personinfo id="persons.19" depart="95.00" type="DEFAULT_PEDTYPE">
        <walk depart="95.00" departPos="0.00" arrival="108.00" arrivalPos="17.50" duration="13.00" routeLength="17.50" timeLoss="2.12" maxSpeed="1.61"/>
        <ride waitingTime="18.00" vehicle="bus.1" depart="126.00" arrival="243.00" arrivalPos="20.00" duration="117.00" routeLength="566.47" timeLoss="42.22"/>
        <walk depart="243.00" departPos="20.00" arrival="252.00" arrivalPos="30.00" duration="9.00" routeLength="10.00" timeLoss="1.80" maxSpeed="1.39"/>
    </personinfo>
    <personinfo id="persons.20" depart="100.00" type="DEFAULT_PEDTYPE">
        <walk depart="100.00" departPos="0.00" arrival="114.00" arrivalPos="17.50" duration="14.00" routeLength="17.50" timeLoss="1.62" maxSpeed="1.41"/>
        <ride waitingTime="12.00" vehicle="bus.1" depart="126.00" arrival="243.00" arrivalPos="20.00" duration="117.00" routeLength="566.47" timeLoss="42.22"/>
        <walk depart="243.00" departPos="20.00" arrival="252.00" arrivalPos="30.00" duration="9.00" routeLength="10.00" timeLoss="1.80" maxSpeed="1.39"/>
    </personinfo>
    <personinfo id="persons.33" depart="165.00" type="DEFAULT_PEDTYPE">
        <walk depart="165.00" departPos="0.00" arrival="177.00" arrivalPos="17.50" duration="12.00" routeLength="17.50" timeLoss="1.25" maxSpeed="1.63"/>
        <ride waitingTime="13.00" vehicle="bus.1" depart="190.00" arrival="244.00" arrivalPos="20.00" duration="54.00" routeLength="336.77" timeLoss="11.75"/>
        <walk depart="244.00" departPos="20.00" arrival="253.00" arrivalPos="30.00" duration="9.00" routeLength="10.00" timeLoss="1.80" maxSpeed="1.39"/>
    </personinfo>
    <personinfo id="persons.34" depart="170.00" type="DEFAULT_PEDTYPE">
        <walk depart="170.00" departPos="0.00" arrival="185.00" arrivalPos="17.50" duration="15.00" routeLength="17.50" timeLoss="2.33" maxSpeed="1.38"/>
        <ride waitingTime="5.00" vehicle="bus.1" depart="190.00" arrival="244.00" arrivalPos="20.00" duration="54.00" routeLength="336.77" timeLoss="11.75"/>
        <walk depart="244.00" departPos="20.00" arrival="253.00" arrivalPos="30.00" duration="9.00" routeLength="10.00" timeLoss="1.80" maxSpeed="1.39"/>
    </personinfo>
    <personinfo id="persons.35" depart="175.00" type="DEFAULT_PEDTYPE">
        <walk depart="175.00" departPos="0.00" arrival="189.00" arrivalPos="17.50" duration="14.00" routeLength="17.50" timeLoss="1.64" maxSpeed="1.42"/>
        <ride waitingTime="1.00" vehicle="bus.1" depart="190.00" arrival="245.00" arrivalPos="20.00" duration="55.00" routeLength="336.77" timeLoss="11.75"/>
        <walk depart="245.00" departPos="20.00" arrival="254.00" arrivalPos="30.00" duration="9.00" routeLength="10.00" timeLoss="1.80" maxSpeed="1.39"/>
    </personinfo>
    <personinfo id="persons.39" depart="195.00" type="DEFAULT_PEDTYPE">
        <walk depart="195.00" departPos="0.00" arrival="211.00" arrivalPos="17.50" duration="16.00" routeLength="17.50" timeLoss="2.01" maxSpeed="1.25"/>
        <ride waitingTime="21.00" vehicle="bus.1" depart="232.00" arrival="245.00" arrivalPos="20.00" duration="13.00" routeLength="107.07" timeLoss="3.29"/>
        <walk depart="245.00" departPos="20.00" arrival="254.00" arrivalPos="30.00" duration="9.00" routeLength="10.00" timeLoss="1.80" maxSpeed="1.39"/>
    </personinfo>
    <personinfo id="persons.42" depart="210.00" type="DEFAULT_PEDTYPE">
        <walk depart="210.00" departPos="0.00" arrival="223.00" arrivalPos="17.50" duration="13.00" routeLength="17.50" timeLoss="1.46" maxSpeed="1.52"/>
        <ride waitingTime="9.00" vehicle="bus.1" depart="232.00" arrival="246.00" arrivalPos="20.00" duration="14.00" routeLength="107.07" timeLoss="3.29"/>
        <walk depart="246.00" departPos="20.00" arrival="255.00" arrivalPos="30.00" duration="9.00" routeLength="10.00" timeLoss="1.80" maxSpeed="1.39"/>
    </personinfo>
    <personinfo id="persons.43" depart="215.00" type="DEFAULT_PEDTYPE">
        <walk depart="215.00" departPos="0.00" arrival="229.00" arrivalPos="17.50" duration="14.00" routeLength="17.50" timeLoss="1.86" maxSpeed="1.44"/>
        <ride waitingTime="3.00" vehicle="bus.1" depart="232.00" arrival="246.00" arrivalPos="20.00" duration="14.00" routeLength="107.07" timeLoss="3.29"/>
        <walk depart="246.00" departPos="20.00" arrival="255.00" arrivalPos="30.00" duration="9.00" routeLength="10.00" timeLoss="1.80" maxSpeed="1.39"/>
    </personinfo>
    <personinfo id="persons.40" depart="200.00" type="DEFAULT_PEDTYPE">
        <walk depart="200.00" departPos="0.00" arrival="214.00" arrivalPos="17.50" duration="14.00" routeLength="17.50" timeLoss="1.77" maxSpeed="1.43"/>
        <ride waitingTime="18.00" vehicle="bus.1" depart="232.00" arrival="270.00" arrivalPos="20.00" duration="38.00" routeLength="148.44" timeLoss="7.31"/>
        <walk depart="270.00" departPos="20.00" arrival="278.00" arrivalPos="30.00" duration="8.00" routeLength="10.00" timeLoss="0.80" maxSpeed="1.39"/>
    </personinfo>
    <personinfo id="persons.41" depart="205.00" type="DEFAULT_PEDTYPE">
        <walk depart="205.00" departPos="0.00" arrival="220.00" arrivalPos="17.50" duration="15.00" routeLength="17.50" timeLoss="1.84" maxSpeed="1.33"/>
        <ride waitingTime="12.00" vehicle="bus.1" depart="232.00" arrival="270.00" arrivalPos="20.00" duration="38.00" routeLength="148.44" timeLoss="7.31"/>
        <walk depart="270.00" departPos="20.00" arrival="279.00" arrivalPos="30.00" duration="9.00" routeLength="10.00" timeLoss="1.80" maxSpeed="1.39"/>
    </personinfo>
    <personinfo id="persons.47" depart="235.00" type="DEFAULT_PEDTYPE">
        <walk depart="235.00" departPos="0.00" arrival="251.00" arrivalPos="17.50" duration="16.00" routeLength="17.50" timeLoss="2.01" maxSpeed="1.25"/>
        <ride waitingTime="2.00" vehicle="bus.0" depart="253.00" arrival="292.00" arrivalPos="20.00" duration="39.00" routeLength="148.44" timeLoss="28.31"/>
        <walk depart="292.00" departPos="20.00" arrival="300.00" arrivalPos="30.00" duration="8.00" routeLength="10.00" timeLoss="0.80" maxSpeed="1.39"/>
    </personinfo>
    <personinfo id="persons.36" depart="180.00" type="DEFAULT_PEDTYPE">
        <walk depart="180.00" departPos="0.00" arrival="195.00" arrivalPos="17.50" duration="15.00" routeLength="17.50" timeLoss="2.05" maxSpeed="1.35"/>
        <ride waitingTime="11.00" vehicle="bus.0" depart="206.00" arrival="333.00" arrivalPos="20.00" duration="127.00" routeLength="566.47" timeLoss="50.22"/>
        <walk depart="333.00" departPos="20.00" arrival="341.00" arrivalPos="30.00" duration="8.00" routeLength="10.00" timeLoss="0.80" maxSpeed="1.39"/>
    </personinfo>
    <personinfo id="persons.37" depart="185.00" type="DEFAULT_PEDTYPE">
        <walk depart="185.00" departPos="0.00" arrival="197.00" arrivalPos="17.50" duration="12.00" routeLength="17.50" timeLoss="1.32" maxSpeed="1.64"/>
        <ride waitingTime="9.00" vehicle="bus.0" depart="206.00" arrival="333.00" arrivalPos="20.00" duration="127.00" routeLength="566.47" timeLoss="50.22"/>
        <walk depart="333.00" departPos="20.00" arrival="342.00" arrivalPos="30.00" duration="9.00" routeLength="10.00" timeLoss="1.80" maxSpeed="1.39"/>
    </personinfo>
    <personinfo id="persons.38" depart="190.00" type="DEFAULT_PEDTYPE">
        <walk depart="190.00" departPos="0.00" arrival="203.00" arrivalPos="17.50" duration="13.00" routeLength="17.50" timeLoss="1.57" maxSpeed="1.53"/>
        <ride waitingTime="3.00" vehicle="bus.0" depart="206.00" arrival="333.00" arrivalPos="20.00" duration="127.00" routeLength="566.47" timeLoss="50.22"/>
        <walk depart="333.00" departPos="20.00" arrival="342.00" arrivalPos="30.00" duration="9.00" routeLength="10.00" timeLoss="1.80" maxSpeed="1.39"/>
    </personinfo>
    <personinfo id="persons.44" depart="220.00" type="DEFAULT_PEDTYPE">
        <walk depart="220.00" departPos="0.00" arrival="234.00" arrivalPos="17.50" duration="14.00" routeLength="17.50" timeLoss="1.92" maxSpeed="1.45"/>
        <ride waitingTime="19.00" vehicle="bus.0" depart="253.00" arrival="334.00" arrivalPos="20.00" duration="81.00" routeLength="336.77" timeLoss="35.75"/>
        <walk depart="334.00" departPos="20.00" arrival="343.00" arrivalPos="30.00" duration="9.00" routeLength="10.00" timeLoss="1.80" maxSpeed="1.39"/>
    </personinfo>
    <personinfo id="persons.45" depart="225.00" type="DEFAULT_PEDTYPE">
        <walk depart="225.00" departPos="0.00" arrival="238.00" arrivalPos="17.50" duration="13.00" routeLength="17.50" timeLoss="1.42" maxSpeed="1.51"/>
        <ride waitingTime="15.00" vehicle="bus.0" depart="253.00" arrival="334.00" arrivalPos="20.00" duration="81.00" routeLength="336.77" timeLoss="35.75"/>
        <walk depart="334.00" departPos="20.00" arrival="343.00" arrivalPos="30.00" duration="9.00" routeLength="10.00" timeLoss="1.80" maxSpeed="1.39"/>
    </personinfo>
    <personinfo id="persons.46" depart="230.00" type="DEFAULT_PEDTYPE">
        <walk depart="230.00" departPos="0.00" arrival="244.00" arrivalPos="17.50" duration="14.00" routeLength="17.50" timeLoss="1.37" maxSpeed="1.39"/>
        <ride waitingTime="9.00" vehicle="bus.0" depart="253.00" arrival="335.00" arrivalPos="20.00" duration="82.00" routeLength="336.77" timeLoss="35.75"/>
        <walk depart="335.00" departPos="20.00" arrival="344.00" arrivalPos="30.00" duration="9.00" routeLength="10.00" timeLoss="1.80" maxSpeed="1.39"/>
    </personinfo>
    <personinfo id="persons.48" depart="240.00" type="DEFAULT_PEDTYPE">
        <walk depart="240.00" departPos="0.00" arrival="257.00" arrivalPos="17.50" duration="17.00" routeLength="17.50" timeLoss="2.63" maxSpeed="1.22"/>
        <ride waitingTime="65.00" vehicle="bus.0" depart="322.00" arrival="335.00" arrivalPos="20.00" duration="13.00" routeLength="107.07" timeLoss="3.29"/>
        <walk depart="335.00" departPos="20.00" arrival="344.00" arrivalPos="30.00" duration="9.00" routeLength="10.00" timeLoss="1.80" maxSpeed="1.39"/>
    </personinfo>
    <personinfo id="persons.49" depart="245.00" type="DEFAULT_PEDTYPE">
        <walk depart="245.00" departPos="0.00" arrival="261.00" arrivalPos="17.50" duration="16.00" routeLength="17.50" timeLoss="1.18" maxSpeed="1.18"/>
        <ride waitingTime="61.00" vehicle="bus.0" depart="322.00" arrival="336.00" arrivalPos="20.00" duration="14.00" routeLength="107.07" timeLoss="3.29"/>
        <walk depart="336.00" departPos="20.00" arrival="345.00" arrivalPos="30.00" duration="9.00" routeLength="10.00" timeLoss="1.80" maxSpeed="1.39"/>
    </personinfo>
    <personinfo id="persons.50" depart="250.00" type="DEFAULT_PEDTYPE">
        <walk depart="250.00" departPos="0.00" arrival="267.00" arrivalPos="17.50" duration="17.00" routeLength="17.50" timeLoss="2.26" maxSpeed="1.19"/>
        <ride waitingTime="55.00" vehicle="bus.0" depart="322.00" arrival="336.00" arrivalPos="20.00" duration="14.00" routeLength="107.07" timeLoss="3.29"/>
        <walk depart="336.00" departPos="20.00" arrival="345.00" arrivalPos="30.00" duration="9.00" routeLength="10.00" timeLoss="1.80" maxSpeed="1.39"/>
    </personinfo>
    <personinfo id="persons.51" depart="255.00" type="DEFAULT_PEDTYPE">
        <walk depart="255.00" departPos="0.00" arrival="268.00" arrivalPos="17.50" duration="13.00" routeLength="17.50" timeLoss="2.22" maxSpeed="1.62"/>
        <ride waitingTime="54.00" vehicle="bus.0" depart="322.00" arrival="337.00" arrivalPos="20.00" duration="15.00" routeLength="107.07" timeLoss="3.29"/>
        <walk depart="337.00" departPos="20.00" arrival="346.00" arrivalPos="30.00" duration="9.00" routeLength="10.00" timeLoss="1.80" maxSpeed="1.39"/>
    </personinfo>
    <personinfo id="persons.55" depart="275.00" type="DEFAULT_PEDTYPE">
        <walk depart="275.00" departPos="0.00" arrival="290.00" arrivalPos="17.50" duration="15.00" routeLength="17.50" timeLoss="2.35" maxSpeed="1.38"/>
        <ride waitingTime="32.00" vehicle="bus.0" depart="322.00" arrival="337.00" arrivalPos="20.00" duration="15.00" routeLength="107.07" timeLoss="3.29"/>