<?xml version="1.0" encoding="UTF-8"?>

<!-- generated on 2023-03-28 02:32:04 by Eclipse SUMO GUI Version 1.14.1
<configuration xmlns:xsi="http://www.w3.org/2001/XMLSchema-instance" xsi:noNamespaceSchemaLocation="http://sumo.dlr.de/xsd/sumoConfiguration.xsd">

    <input>
        <net-file value="traffic/ring.net.xml"/>
        <additional-files value="traffic/ring.add.xml,traffic/persons.add.xml"/>
    </input>

    <output>
        <tripinfo-output value="tripinfo.xml"/>
    </output>

    <processing>
        <no-internal-links value="false"/>
        <lanechange.overtake-right value="true"/>
    </processing>

    <report>
        <no-warnings value="true"/>
    </report>

    <traci_server>
        <remote-port value="59801"/>
    </traci_server>

</configuration>
-->

<tripinfos xmlns:xsi="http://www.w3.org/2001/XMLSchema-instance" xsi:noNamespaceSchemaLocation="http://sumo.dlr.de/xsd/tripinfo_file.xsd">
    <personinfo id="p105" depart="0.00" type="DEFAULT_PEDTYPE">
        <walk depart="0.00" departPos="221.00" arrival="8.00" arrivalPos="226.67" duration="8.00" routeLength="5.67" timeLoss="3.43" maxSpeed="1.24"/>
        <ride waitingTime="25.00" vehicle="bus.1" depart="33.00" arrival="65.00" arrivalPos="231.67" duration="32.00" routeLength="443.34" timeLoss="5.83"/>
        <walk depart="65.00" departPos="231.67" arrival="80.00" arrivalPos="250.00" duration="15.00" routeLength="18.33" timeLoss="1.80" maxSpeed="1.39"/>
    </personinfo>
    <personinfo id="p81" depart="0.00" type="DEFAULT_PEDTYPE">
        <walk depart="0.00" departPos="221.00" arrival="5.00" arrivalPos="226.67" duration="5.00" routeLength="5.67" timeLoss="1.05" maxSpeed="1.44"/>
        <ride waitingTime="28.00" vehicle="bus.2" depart="33.00" arrival="65.00" arrivalPos="231.67" duration="32.00" routeLength="443.33" timeLoss="5.83"/>
        <walk depart="65.00" departPos="231.67" arrival="80.00" arrivalPos="250.00" duration="15.00" routeLength="18.33" timeLoss="1.80" maxSpeed="1.39"/>
    </personinfo>
    <personinfo id="p110" depart="0.00" type="DEFAULT_PEDTYPE">
        <walk depart="0.00" departPos="221.00" arrival="9.00" arrivalPos="226.67" duration="9.00" routeLength="5.67" timeLoss="4.75" maxSpeed="1.33"/>
        <ride waitingTime="24.00" vehicle="bus.1" depart="33.00" arrival="66.00" arrivalPos="231.67" duration="33.00" routeLength="443.34" timeLoss="5.83"/>
        <walk depart="66.00" departPos="231.67" arrival="81.00" arrivalPos="250.00" duration="15.00" routeLength="18.33" timeLoss="1.80" maxSpeed="1.39"/>
    </personinfo>
    <personinfo id="p22" depart="0.00" type="DEFAULT_PEDTYPE">
        <walk depart="0.00" departPos="221.00" arrival="6.00" arrivalPos="226.67" duration="6.00" routeLength="5.67" timeLoss="1.96" maxSpeed="1.40"/>
        <ride waitingTime="27.00" vehicle="bus.5" depart="33.00" arrival="66.00" arrivalPos="231.67" duration="33.00" routeLength="443.33" timeLoss="5.83"/>
        <walk depart="66.00" departPos="231.67" arrival="81.00" arrivalPos="250.00" duration="15.00" routeLength="18.33" timeLoss="1.80" maxSpeed="1.39"/>
    </personinfo>
    <personinfo id="p48" depart="0.00" type="DEFAULT_PEDTYPE">
        <walk depart="0.00" departPos="221.00" arrival="10.00" arrivalPos="226.67" duration="10.00" routeLength="5.67" timeLoss="5.47" maxSpeed="1.25"/>
        <ride waitingTime="23.00" vehicle="bus.4" depart="33.00" arrival="66.00" arrivalPos="231.67" duration="33.00" routeLength="443.34" timeLoss="5.83"/>
        <walk depart="66.00" departPos="231.67" arrival="81.00" arrivalPos="250.00" duration="15.00" routeLength="18.33" timeLoss="1.80" maxSpeed="1.39"/>
    </personinfo>
    <personinfo id="p64" depart="0.00" type="DEFAULT_PEDTYPE">
        <walk depart="0.00" departPos="221.00" arrival="9.00" arrivalPos="226.67" duration="9.00" routeLength="5.67" timeLoss="4.86" maxSpeed="1.37"/>
        <ride waitingTime="24.00" vehicle="bus.3" depart="33.00" arrival="66.00" arrivalPos="231.67" duration="33.00" routeLength="443.33" timeLoss="5.83"/>
        <walk depart="66.00" departPos="231.67" arrival="81.00" arrivalPos="250.00" duration="15.00" routeLength="18.33" timeLoss="1.80" maxSpeed="1.39"/>
    </personinfo>
    <personinfo id="p65" depart="0.00" type="DEFAULT_PEDTYPE">
        <walk depart="0.00" departPos="221.00" arrival="6.00" arrivalPos="226.67" duration="6.00" routeLength="5.67" timeLoss="1.65" maxSpeed="1.30"/>
        <ride waitingTime="27.00" vehicle="bus.3" depart="33.00" arrival="66.00" arrivalPos="231.67" duration="33.00" routeLength="443.33" timeLoss="5.83"/>
        <walk depart="66.00" departPos="231.67" arrival="81.00" arrivalPos="250.00" duration="15.00" routeLength="18.33" timeLoss="1.80" maxSpeed="1.39"/>
    </personinfo>
    <personinfo id="p83" depart="0.00" type="DEFAULT_PEDTYPE">
        <walk depart="0.00" departPos="221.00" arrival="7.00" arrivalPos="226.67" duration="7.00" routeLength="5.67" timeLoss="2.99" maxSpeed="1.41"/>
        <ride waitingTime="26.00" vehicle="bus.2" depart="33.00" arrival="66.00" arrivalPos="231.67" duration="33.00" routeLength="443.33" timeLoss="5.83"/>
        <walk depart="66.00" departPos="231.67" arrival="81.00" arrivalPos="250.00" duration="15.00" routeLength="18.33" timeLoss="1.80" maxSpeed="1.39"/>
    </personinfo>
    <personinfo id="p29" depart="0.00" type="DEFAULT_PEDTYPE">
        <walk depart="0.00" departPos="221.00" arrival="11.00" arrivalPos="226.67" duration="11.00" routeLength="5.67" timeLoss="7.39" maxSpeed="1.57"/>
        <ride waitingTime="22.00" vehicle="bus.5" depart="33.00" arrival="66.00" arrivalPos="231.67" duration="33.00" routeLength="443.33" timeLoss="5.83"/>
        <walk depart="66.00" departPos="231.67" arrival="82.00" arrivalPos="250.00" duration="16.00" routeLength="18.33" timeLoss="2.80" maxSpeed="1.39"/>
    </personinfo>
    <personinfo id="p85" depart="0.00" type="DEFAULT_PEDTYPE">
        <walk depart="0.00" departPos="221.00" arrival="8.00" arrivalPos="226.67" duration="8.00" routeLength="5.67" timeLoss="4.44" maxSpeed="1.59"/>
        <ride waitingTime="25.00" vehicle="bus.2" depart="33.00" arrival="66.00" arrivalPos="231.67" duration="33.00" routeLength="443.33" timeLoss="5.83"/>
        <walk depart="66.00" departPos="231.67" arrival="82.00" arrivalPos="250.00" duration="16.00" routeLength="18.33" timeLoss="2.80" maxSpeed="1.39"/>
    </personinfo>
    <personinfo id="p11" depart="0.00" type="DEFAULT_PEDTYPE">
        <walk depart="0.00" departPos="221.00" arrival="4.00" arrivalPos="226.67" duration="4.00" routeLength="5.67" timeLoss="0.26" maxSpeed="1.51"/>
        <ride waitingTime="42.00" vehicle="bus.0" depart="46.00" arrival="74.00" arrivalPos="231.67" duration="28.00" routeLength="443.34" timeLoss="5.83"/>
        <walk depart="74.00" departPos="231.67" arrival="89.00" arrivalPos="250.00" duration="15.00" routeLength="18.33" timeLoss="1.80" maxSpeed="1.39"/>
    </personinfo>
    <personinfo id="p14" depart="0.00" type="DEFAULT_PEDTYPE">
        <walk depart="0.00" departPos="221.00" arrival="7.00" arrivalPos="226.67" duration="7.00" routeLength="5.67" timeLoss="3.36" maxSpeed="1.56"/>
        <ride waitingTime="39.00" vehicle="bus.0" depart="46.00" arrival="74.00" arrivalPos="231.67" duration="28.00" routeLength="443.34" timeLoss="5.83"/>
        <walk depart="74.00" departPos="231.67" arrival="90.00" arrivalPos="250.00" duration="16.00" routeLength="18.33" timeLoss="2.80" maxSpeed="1.39"/>
    </personinfo>
    <personinfo id="p20" depart="0.00" type="DEFAULT_PEDTYPE">
        <walk depart="0.00" departPos="221.00" arrival="9.00" arrivalPos="226.67" duration="9.00" routeLength="5.67" timeLoss="5.48" maxSpeed="1.61"/>
        <ride waitingTime="37.00" vehicle="bus.0" depart="46.00" arrival="74.00" arrivalPos="231.67" duration="28.00" routeLength="443.34" timeLoss="5.83"/>
        <walk depart="74.00" departPos="231.67" arrival="90.00" arrivalPos="250.00" duration="16.00" routeLength="18.33" timeLoss="2.80" maxSpeed="1.39"/>
    </personinfo>
    <personinfo id="pStop2.0" depart="1.58" type="DEFAULT_PEDTYPE">
        <walk depart="2.00" departPos="200.00" arrival="21.00" arrivalPos="226.67" duration="19.00" routeLength="26.67" timeLoss="2.40" maxSpeed="1.61"/>
        <ride waitingTime="25.00" vehicle="bus.0" depart="46.00" arrival="75.00" arrivalPos="231.67" duration="29.00" routeLength="443.34" timeLoss="5.83"/>
        <walk depart="75.00" departPos="231.67" arrival="90.00" arrivalPos="250.00" duration="15.00" routeLength="18.33" timeLoss="1.80" maxSpeed="1.39"/>
    </personinfo>
    <personinfo id="p119" depart="0.00" type="DEFAULT_PEDTYPE">
        <walk depart="0.00" departPos="221.00" arrival="10.00" arrivalPos="226.67" duration="10.00" routeLength="5.67" timeLoss="5.88" maxSpeed="1.38"/>
        <ride waitingTime="57.00" vehicle="bus.1" depart="67.00" arrival="99.00" arrivalPos="231.67" duration="32.00" routeLength="443.33" timeLoss="5.83"/>
        <walk depart="99.00" departPos="231.67" arrival="114.00" arrivalPos="250.00" duration="15.00" routeLength="18.33" timeLoss="1.80" maxSpeed="1.39"/>
    </personinfo>
    <personinfo id="p120" depart="0.00" type="DEFAULT_PEDTYPE">
        <walk depart="0.00" departPos="221.00" arrival="10.00" arrivalPos="226.67" duration="10.00" routeLength="5.67" timeLoss="6.19" maxSpeed="1.49"/>
        <ride waitingTime="57.00" vehicle="bus.1" depart="67.00" arrival="100.00" arrivalPos="231.67" duration="33.00" routeLength="443.33" timeLoss="5.83"/>
        <walk depart="100.00" departPos="231.67" arrival="115.00" arrivalPos="250.00" duration="15.00" routeLength="18.33" timeLoss="1.80" maxSpeed="1.39"/>
    </personinfo>
    <personinfo id="p82" depart="0.00" type="DEFAULT_PEDTYPE">
        <walk depart="0.00" departPos="221.00" arrival="6.00" arrivalPos="226.67" duration="6.00" routeLength="5.67" timeLoss="1.91" maxSpeed="1.39"/>
        <ride waitingTime="27.00" vehicle="bus.2" depart="33.00" arrival="104.00" arrivalPos="231.67" duration="71.00" routeLength="886.66" timeLoss="11.67"/>
        <walk depart="104.00" departPos="231.67" arrival="119.00" arrivalPos="250.00" duration="15.00" routeLength="18.33" timeLoss="1.80" maxSpeed="1.39"/>
    </personinfo>
    <personinfo id="p23" depart="0.00" type="DEFAULT_PEDTYPE">
        <walk depart="0.00" departPos="221.00" arrival="7.00" arrivalPos="226.67" duration="7.00" routeLength="5.67" timeLoss="2.81" maxSpeed="1.35"/>
        <ride waitingTime="26.00" vehicle="bus.5" depart="33.00" arrival="104.00" arrivalPos="231.67" duration="71.00" routeLength="886.66" timeLoss="11.67"/>
        <walk depart="104.00" departPos="231.67" arrival="119.00" arrivalPos="250.00" duration="15.00" routeLength="18.33" timeLoss="1.80" maxSpeed="1.39"/>
    </personinfo>
    <personinfo id="p42" depart="0.00" type="DEFAULT_PEDTYPE">
        <walk depart="0.00" departPos="221.00" arrival="6.00" arrivalPos="226.67" duration="6.00" routeLength="5.67" timeLoss="1.74" maxSpeed="1.33"/>
        <ride waitingTime="27.00" vehicle="bus.4" depart="33.00" arrival="104.00" arrivalPos="231.67" duration="71.00" routeLength="886.67" timeLoss="11.67"/>
        <walk depart="104.00" departPos="231.67" arrival="119.00" arrivalPos="250.00" duration="15.00" routeLength="18.33" timeLoss="1.80" maxSpeed="1.39"/>
    </personinfo>
    <personinfo id="p63" depart="0.00" type="DEFAULT_PEDTYPE">
        <walk depart="0.00" departPos="221.00" arrival="6.00" arrivalPos="226.67" duration="6.00" routeLength="5.67" timeLoss="1.98" maxSpeed="1.41"/>
        <ride waitingTime="27.00" vehicle="bus.3" depart="33.00" arrival="104.00" arrivalPos="231.67" duration="71.00" routeLength="886.67" timeLoss="11.67"/>
        <walk depart="104.00" departPos="231.67" arrival="119.00" arrivalPos="250.00" duration="15.00" routeLength="18.33" timeLoss="1.80" maxSpeed="1.39"/>
    </personinfo>
    <personinfo id="p89" depart="0.00" type="DEFAULT_PEDTYPE">
        <walk depart="0.00" departPos="221.00" arrival="9.00" arrivalPos="226.67" duration="9.00" routeLength="5.67" timeLoss="4.95" maxSpeed="1.40"/>
        <ride waitingTime="24.00" vehicle="bus.2" depart="33.00" arrival="104.00" arrivalPos="231.67" duration="71.00" routeLength="886.66" timeLoss="11.67"/>
        <walk depart="104.00" departPos="231.67" arrival="120.00" arrivalPos="250.00" duration="16.00" routeLength="18.33" timeLoss="2.80" maxSpeed="1.39"/>
    </personinfo>
    <personinfo id="p90" depart="0.00" type="DEFAULT_PEDTYPE">
        <walk depart="0.00" departPos="221.00" arrival="10.00" arrivalPos="226.67" duration="10.00" routeLength="5.67" timeLoss="6.01" maxSpeed="1.42"/>
        <ride waitingTime="23.00" vehicle="bus.2" depart="33.00" arrival="105.00" arrivalPos="231.67" duration="72.00" routeLength="886.66" timeLoss="11.67"/>
        <walk depart="105.00" departPos="231.67" arrival="120.00" arrivalPos="250.00" duration="15.00" routeLength="18.33" timeLoss="1.80" maxSpeed="1.39"/>
    </personinfo>
    <personinfo id="p37" depart="0.00" type="DEFAULT_PEDTYPE">
        <walk depart="0.00" departPos="221.00" arrival="8.00" arrivalPos="226.67" duration="8.00" routeLength="5.67" timeLoss="3.81" maxSpeed="1.35"/>
        <ride waitingTime="68.00" vehicle="bus.5" depart="76.00" arrival="104.00" arrivalPos="231.67" duration="28.00" routeLength="443.33" timeLoss="5.83"/>
        <walk depart="104.00" departPos="231.67" arrival="120.00" arrivalPos="250.00" duration="16.00" routeLength="18.33" timeLoss="2.80" maxSpeed="1.39"/>
    </personinfo>
    <personinfo id="p33" depart="0.00" type="DEFAULT_PEDTYPE">
        <walk depart="0.00" departPos="221.00" arrival="6.00" arrivalPos="226.67" duration="6.00" routeLength="5.67" timeLoss="1.94" maxSpeed="1.40"/>
        <ride waitingTime="70.00" vehicle="bus.5" depart="76.00" arrival="104.00" arrivalPos="231.67" duration="28.00" routeLength="443.33" timeLoss="5.83"/>
        <walk depart="104.00" departPos="231.67" arrival="120.00" arrivalPos="250.00" duration="16.00" routeLength="18.33" timeLoss="2.80" maxSpeed="1.39"/>
    </personinfo>
    <personinfo id="p47" depart="0.00" type="DEFAULT_PEDTYPE">
        <walk depart="0.00" departPos="221.00" arrival="7.00" arrivalPos="226.67" duration="7.00" routeLength="5.67" timeLoss="2.91" maxSpeed="1.39"/>
        <ride waitingTime="26.00" vehicle="bus.4" depart="33.00" arrival="105.00" arrivalPos="231.67" duration="72.00" routeLength="886.67" timeLoss="11.67"/>
        <walk depart="105.00" departPos="231.67" arrival="120.00" arrivalPos="250.00" duration="15.00" routeLength="18.33" timeLoss="1.80" maxSpeed="1.39"/>
    </personinfo>
    <personinfo id="p75" depart="0.00" type="DEFAULT_PEDTYPE">
        <walk depart="0.00" departPos="221.00" arrival="7.00" arrivalPos="226.67" duration="7.00" routeLength="5.67" timeLoss="2.73" maxSpeed="1.33"/>
        <ride waitingTime="69.00" vehicle="bus.3" depart="76.00" arrival="104.00" arrivalPos="231.67" duration="28.00" routeLength="443.34" timeLoss="5.83"/>
        <walk depart="104.00" departPos="231.67" arrival="120.00" arrivalPos="250.00" duration="16.00" routeLength="18.33" timeLoss="2.80" maxSpeed="1.39"/>
    </personinfo>
    <personinfo id="p66" depart="0.00" type="DEFAULT_PEDTYPE">
        <walk depart="0.00" departPos="221.00" arrival="9.00" arrivalPos="226.67" duration="9.00" routeLength="5.67" timeLoss="4.37" maxSpeed="1.23"/>
        <ride waitingTime="24.00" vehicle="bus.3" depart="33.00" arrival="104.00" arrivalPos="231.67" duration="71.00" routeLength="886.67" timeLoss="11.67"/>
        <walk depart="104.00" departPos="231.67" arrival="120.00" arrivalPos="250.00" duration="16.00" routeLength="18.33" timeLoss="2.80" maxSpeed="1.39"/>
    </personinfo>
    <personinfo id="p77" depart="0.00" type="DEFAULT_PEDTYPE">
        <walk depart="0.00" departPos="221.00" arrival="10.00" arrivalPos="226.67" duration="10.00" routeLength="5.67" timeLoss="6.05" maxSpeed="1.43"/>
        <ride waitingTime="66.00" vehicle="bus.3" depart="76.00" arrival="105.00" arrivalPos="231.67" duration="29.00" routeLength="443.34" timeLoss="5.83"/>
        <walk depart="105.00" departPos="231.67" arrival="120.00" arrivalPos="250.00" duration="15.00" routeLength="18.33" timeLoss="1.80" maxSpeed="1.39"/>
    </personinfo>
    <personinfo id="p97" depart="0.00" type="DEFAULT_PEDTYPE">
        <walk depart="0.00" departPos="221.00" arrival="8.00" arrivalPos="226.67" duration="8.00" routeLength="5.67" timeLoss="3.96" maxSpeed="1.40"/>
        <ride waitingTime="68.00" vehicle="bus.2" depart="76.00" arrival="105.00" arrivalPos="231.67" duration="29.00" routeLength="443.33" timeLoss="5.83"/>
        <walk depart="105.00" departPos="231.67" arrival="121.00" arrivalPos="250.00" duration="16.00" routeLength="18.33" timeLoss="2.80" maxSpeed="1.39"/>
    </personinfo>
    <personinfo id="p98" depart="0.00" type="DEFAULT_PEDTYPE">
        <walk depart="0.00" departPos="221.00" arrival="10.00" arrivalPos="226.67" duration="10.00" routeLength="5.67" timeLoss="5.50" maxSpeed="1.26"/>
        <ride waitingTime="66.00" vehicle="bus.2" depart="76.00" arrival="106.00" arrivalPos="231.67" duration="30.00" routeLength="443.33" timeLoss="5.83"/>
        <walk depart="106.00" departPos="231.67" arrival="121.00" arrivalPos="250.00" duration="15.00" routeLength="18.33" timeLoss="1.80" maxSpeed="1.39"/>
    </personinfo>
    <personinfo id="p13" depart="0.00" type="DEFAULT_PEDTYPE">
        <walk depart="0.00" departPos="221.00" arrival="6.00" arrivalPos="226.67" duration="6.00" routeLength="5.67" timeLoss="2.10" maxSpeed="1.45"/>
        <ride waitingTime="40.00" vehicle="bus.0" depart="46.00" arrival="106.00" arrivalPos="231.67" duration="60.00" routeLength="886.67" timeLoss="11.67"/>
        <walk depart="106.00" departPos="231.67" arrival="121.00" arrivalPos="250.00" duration="15.00" routeLength="18.33" timeLoss="1.80" maxSpeed="1.39"/>
    </personinfo>
    <personinfo id="p40" depart="0.00" type="DEFAULT_PEDTYPE">
        <walk depart="0.00" departPos="221.00" arrival="11.00" arrivalPos="226.67" duration="11.00" routeLength="5.67" timeLoss="6.47" maxSpeed="1.25"/>
        <ride waitingTime="65.00" vehicle="bus.5" depart="76.00" arrival="105.00" arrivalPos="231.67" duration="29.00" routeLength="443.33" timeLoss="5.83"/>
        <walk depart="105.00" departPos="231.67" arrival="121.00" arrivalPos="250.00" duration="16.00" routeLength="18.33" timeLoss="2.80" maxSpeed="1.39"/>
    </personinfo>
    <personinfo id="p56" depart="0.00" type="DEFAULT_PEDTYPE">
        <walk depart="0.00" departPos="221.00" arrival="9.00" arrivalPos="226.67" duration="9.00" routeLength="5.67" timeLoss="4.90" maxSpeed="1.38"/>
        <ride waitingTime="67.00" vehicle="bus.4" depart="76.00" arrival="105.00" arrivalPos="231.67" duration="29.00" routeLength="443.33" timeLoss="5.83"/>
        <walk depart="105.00" departPos="231.67" arrival="121.00" arrivalPos="250.00" duration="16.00" routeLength="18.33" timeLoss="2.80" maxSpeed="1.39"/>
    </personinfo>
    <personinfo id="pStop8.0" depart="9.91" type="DEFAULT_PEDTYPE">
        <walk depart="10.00" departPos="200.00" arrival="32.00" arrivalPos="226.67" duration="22.00" routeLength="26.67" timeLoss="2.53" maxSpeed="1.37"/>
        <ride waitingTime="44.00" vehicle="bus.3" depart="76.00" arrival="105.00" arrivalPos="231.67" duration="29.00" routeLength="443.34" timeLoss="5.83"/>
        <walk depart="105.00" departPos="231.67" arrival="121.00" arrivalPos="250.00" duration="16.00" routeLength="18.33" timeLoss="2.80" maxSpeed="1.39"/>
    </personinfo>
    <personinfo id="p102" depart="0.00" type="DEFAULT_PEDTYPE">
        <walk depart="0.00" departPos="221.00" arrival="6.00" arrivalPos="226.67" duration="6.00" routeLength="5.67" timeLoss="1.73" maxSpeed="1.33"/>
        <ride waitingTime="27.00" vehicle="bus.1" depart="33.00" arrival="129.00" arrivalPos="231.67" duration="96.00" routeLength="1330.00" timeLoss="17.50"/>
        <walk depart="129.00" departPos="231.67" arrival="144.00" arrivalPos="250.00" duration="15.00" routeLength="18.33" timeLoss="1.80" maxSpeed="1.39"/>
    </personinfo>
    <personinfo id="p106" depart="0.00" type="DEFAULT_PEDTYPE">
        <walk depart="0.00" departPos="221.00" arrival="9.00" arrivalPos="226.67" duration="9.00" routeLength="5.67" timeLoss="5.19" maxSpeed="1.49"/>
        <ride waitingTime="24.00" vehicle="bus.1" depart="33.00" arrival="129.00" arrivalPos="231.67" duration="96.00" routeLength="1330.00" timeLoss="17.50"/>
        <walk depart="129.00" departPos="231.67" arrival="145.00" arrivalPos="250.00" duration="16.00" routeLength="18.33" timeLoss="2.80" maxSpeed="1.39"/>
    </personinfo>
    <personinfo id="p109" depart="0.00" type="DEFAULT_PEDTYPE">
        <walk depart="0.00" departPos="221.00" arrival="10.00" arrivalPos="226.67" duration="10.00" routeLength="5.67" timeLoss="6.17" maxSpeed="1.48"/>
        <ride waitingTime="23.00" vehicle="bus.1" depart="33.00" arrival="130.00" arrivalPos="231.67" duration="97.00" routeLength="1330.00" timeLoss="17.50"/>
        <walk depart="130.00" departPos="231.67" arrival="145.00" arrivalPos="250.00" duration="15.00" routeLength="18.33" timeLoss="1.80" maxSpeed="1.39"/>
    </personinfo>
    <personinfo id="p111" depart="0.00" type="DEFAULT_PEDTYPE">
        <walk depart="0.00" departPos="221.00" arrival="5.00" arrivalPos="226.67" duration="5.00" routeLength="5.67" timeLoss="0.60" maxSpeed="1.29"/>
        <ride waitingTime="62.00" vehicle="bus.1" depart="67.00" arrival="130.00" arrivalPos="231.67" duration="63.00" routeLength="886.66" timeLoss="11.67"/>
        <walk depart="130.00" departPos="231.67" arrival="146.00" arrivalPos="250.00" duration="16.00" routeLength="18.33" timeLoss="2.80" maxSpeed="1.39"/>
    </personinfo>
    <personinfo id="p113" depart="0.00" type="DEFAULT_PEDTYPE">
        <walk depart="0.00" departPos="221.00" arrival="6.00" arrivalPos="226.67" duration="6.00" routeLength="5.67" timeLoss="2.28" maxSpeed="1.53"/>
        <ride waitingTime="61.00" vehicle="bus.1" depart="67.00" arrival="131.00" arrivalPos="231.67" duration="64.00" routeLength="886.66" timeLoss="11.67"/>
        <walk depart="131.00" departPos="231.67" arrival="146.00" arrivalPos="250.00" duration="15.00" routeLength="18.33" timeLoss="1.80" maxSpeed="1.39"/>
    </personinfo>
    <personinfo id="p117" depart="0.00" type="DEFAULT_PEDTYPE">
        <walk depart="0.00" departPos="221.00" arrival="9.00" arrivalPos="226.67" duration="9.00" routeLength="5.67" timeLoss="5.53" maxSpeed="1.63"/>
        <ride waitingTime="58.00" vehicle="bus.1" depart="67.00" arrival="131.00" arrivalPos="231.67" duration="64.00" routeLength="886.66" timeLoss="11.67"/>
        <walk depart="131.00" departPos="231.67" arrival="147.00" arrivalPos="250.00" duration="16.00" routeLength="18.33" timeLoss="2.80" maxSpeed="1.39"/>
    </personinfo>
    <personinfo id="p7" depart="0.00" type="DEFAULT_PEDTYPE">
        <walk depart="0.00" departPos="221.00" arrival="8.00" arrivalPos="226.67" duration="8.00" routeLength="5.67" timeLoss="4.10" maxSpeed="1.45"/>
        <ride waitingTime="93.00" vehicle="bus.1" depart="101.00" arrival="132.00" arrivalPos="231.67" duration="31.00" routeLength="443.33" timeLoss="5.83"/>
        <walk depart="132.00" departPos="231.67" arrival="148.00" arrivalPos="250.00" duration="16.00" routeLength="18.33" timeLoss="2.80" maxSpeed="1.39"/>
    </personinfo>
    <personinfo id="p9" depart="0.00" type="DEFAULT_PEDTYPE">
        <walk depart="0.00" departPos="221.00" arrival="9.00" arrivalPos="226.67" duration="9.00" routeLength="5.67" timeLoss="4.65" maxSpeed="1.30"/>
        <ride waitingTime="92.00" vehicle="bus.1" depart="101.00" arrival="132.00" arrivalPos="231.67" duration="31.00" routeLength="443.33" timeLoss="5.83"/>
        <walk depart="132.00" departPos="231.67" arrival="148.00" arrivalPos="250.00" duration="16.00" routeLength="18.33" timeLoss="2.80" maxSpeed="1.39"/>
    </personinfo>
    <personinfo id="p6" depart="0.00" type="DEFAULT_PEDTYPE">
        <walk depart="0.00" departPos="221.00" arrival="9.00" arrivalPos="226.67" duration="9.00" routeLength="5.67" timeLoss="4.09" maxSpeed="1.15"/>
        <ride waitingTime="92.00" vehicle="bus.1" depart="101.00" arrival="133.00" arrivalPos="231.67" duration="32.00" routeLength="443.33" timeLoss="5.83"/>
        <walk depart="133.00" departPos="231.67" arrival="148.00" arrivalPos="250.00" duration="15.00" routeLength="18.33" timeLoss="1.80" maxSpeed="1.39"/>
    </personinfo>
    <personinfo id="p86" depart="0.00" type="DEFAULT_PEDTYPE">
        <walk depart="0.00" departPos="221.00" arrival="7.00" arrivalPos="226.67" duration="7.00" routeLength="5.67" timeLoss="2.82" maxSpeed="1.36"/>
        <ride waitingTime="26.00" vehicle="bus.2" depart="33.00" arrival="136.00" arrivalPos="231.67" duration="103.00" routeLength="1330.00" timeLoss="17.50"/>
        <walk depart="136.00" departPos="231.67" arrival="151.00" arrivalPos="250.00" duration="15.00" routeLength="18.33" timeLoss="1.80" maxSpeed="1.39"/>
    </personinfo>
    <personinfo id="p87" depart="0.00" type="DEFAULT_PEDTYPE">
        <walk depart="0.00" departPos="221.00" arrival="9.00" arrivalPos="226.67" duration="9.00" routeLength="5.67" timeLoss="4.93" maxSpeed="1.39"/>
        <ride waitingTime="24.00" vehicle="bus.2" depart="33.00" arrival="136.00" arrivalPos="231.67" duration="103.00" routeLength="1330.00" timeLoss="17.50"/>
        <walk depart="136.00" departPos="231.67" arrival="152.00" arrivalPos="250.00" duration="16.00" routeLength="18.33" timeLoss="2.80" maxSpeed="1.39"/>
    </personinfo>
    <personinfo id="p91" depart="0.00" type="DEFAULT_PEDTYPE">
        <walk depart="0.00" departPos="221.00" arrival="6.00" arrivalPos="226.67" duration="6.00" routeLength="5.67" timeLoss="1.99" maxSpeed="1.41"/>
        <ride waitingTime="70.00" vehicle="bus.2" depart="76.00" arrival="137.00" arrivalPos="231.67" duration="61.00" routeLength="886.67" timeLoss="11.67"/>
        <walk depart="137.00" departPos="231.67" arrival="153.00" arrivalPos="250.00" duration="16.00" routeLength="18.33" timeLoss="2.80" maxSpeed="1.39"/>
    </personinfo>
    <personinfo id="p93" depart="0.00" type="DEFAULT_PEDTYPE">
        <walk depart="0.00" departPos="221.00" arrival="9.00" arrivalPos="226.67" duration="9.00" routeLength="5.67" timeLoss="4.10" maxSpeed="1.16"/>
        <ride waitingTime="67.00" vehicle="bus.2" depart="76.00" arrival="137.00" arrivalPos="231.67" duration="61.00" routeLength="886.67" timeLoss="11.67"/>
        <walk depart="137.00" departPos="231.67" arrival="153.00" arrivalPos="250.00" duration="16.00" routeLength="18.33" timeLoss="2.80" maxSpeed="1.39"/>
    </personinfo>
    <personinfo id="p28" depart="0.00" type="DEFAULT_PEDTYPE">
        <walk depart="0.00" departPos="221.00" arrival="9.00" arrivalPos="226.67" duration="9.00" routeLength="5.67" timeLoss="4.70" maxSpeed="1.32"/>
        <ride waitingTime="24.00" vehicle="bus.5" depart="33.00" arrival="147.00" arrivalPos="231.67" duration="114.00" routeLength="1330.00" timeLoss="17.50"/>
        <walk depart="147.00" departPos="231.67" arrival="163.00" arrivalPos="250.00" duration="16.00" routeLength="18.33" timeLoss="2.80" maxSpeed="1.39"/>
    </personinfo>
    <personinfo id="p61" depart="0.00" type="DEFAULT_PEDTYPE">
        <walk depart="0.00" departPos="221.00" arrival="5.00" arrivalPos="226.67" duration="5.00" routeLength="5.67" timeLoss="1.23" maxSpeed="1.50"/>
        <ride waitingTime="28.00" vehicle="bus.3" depart="33.00" arrival="148.00" arrivalPos="231.67" duration="115.00" routeLength="1330.00" timeLoss="17.50"/>
        <walk depart="148.00" departPos="231.67" arrival="163.00" arrivalPos="250.00" duration="15.00" routeLength="18.33" timeLoss="1.80" maxSpeed="1.39"/>
    </personinfo>
    <personinfo id="p43" depart="0.00" type="DEFAULT_PEDTYPE">
        <walk depart="0.00" departPos="221.00" arrival="6.00" arrivalPos="226.67" duration="6.00" routeLength="5.67" timeLoss="2.26" maxSpeed="1.52"/>
        <ride waitingTime="27.00" vehicle="bus.4" depart="33.00" arrival="149.00" arrivalPos="231.67" duration="116.00" routeLength="1330.00" timeLoss="17.50"/>
        <walk depart="149.00" departPos="231.67" arrival="164.00" arrivalPos="250.00" duration="15.00" routeLength="18.33" timeLoss="1.80" maxSpeed="1.39"/>
    </personinfo>
    <personinfo id="p62" depart="0.00" type="DEFAULT_PEDTYPE">
        <walk depart="0.00" departPos="221.00" arrival="7.00" arrivalPos="226.67" duration="7.00" routeLength="5.67" timeLoss="3.35" maxSpeed="1.55"/>
        <ride waitingTime="26.00" vehicle="bus.3" depart="33.00" arrival="148.00" arrivalPos="231.67" duration="115.00" routeLength="1330.00" timeLoss="17.50"/>
        <walk depart="148.00" departPos="231.67" arrival="164.00" arrivalPos="250.00" duration="16.00" routeLength="18.33" timeLoss="2.80" maxSpeed="1.39"/>
    </personinfo>
    <personinfo id="p49" depart="0.00" type="DEFAULT_PEDTYPE">
        <walk depart="0.00" departPos="221.00" arrival="8.00" arrivalPos="226.67" duration="8.00" routeLength="5.67" timeLoss="3.35" maxSpeed="1.22"/>
        <ride waitingTime="25.00" vehicle="bus.4" depart="33.00" arrival="149.00" arrivalPos="231.67" duration="116.00" routeLength="1330.00" timeLoss="17.50"/>
        <walk depart="149.00" departPos="231.67" arrival="165.00" arrivalPos="250.00" duration="16.00" routeLength="18.33" timeLoss="2.80" maxSpeed="1.39"/>
    </personinfo>
    <personinfo id="p50" depart="0.00" type="DEFAULT_PEDTYPE">
        <walk depart="0.00" departPos="221.00" arrival="10.00" arrivalPos="226.67" duration="10.00" routeLength="5.67" timeLoss="5.20" maxSpeed="1.18"/>
        <ride waitingTime="23.00" vehicle="bus.4" depart="33.00" arrival="150.00" arrivalPos="231.67" duration="117.00" routeLength="1330.00" timeLoss="17.50"/>
        <walk depart="150.00" departPos="231.67" arrival="165.00" arrivalPos="250.00" duration="15.00" routeLength="18.33" timeLoss="1.80" maxSpeed="1.39"/>
    </personinfo>